 Gaussian 09, Revision D.01,
 Gaussian 09:  EM64L-G09RevD.01 24-Apr-2013

 ----------------------------------------
 # opt freq=noraman b3lyp/gen pseudo=read
 ----------------------------------------

 --
 af
 --
 Symbolic Z-matrix:
 Charge =  0 Multiplicity = 1

 SCF Done:  E(RB3LYP) =  -1344.41497785     A.U. after   15 cycles
 SCF Done:  E(RB3LYP) =  -1344.41288737     A.U. after   13 cycles
 SCF Done:  E(RB3LYP) =  -1344.41542086     A.U. after    9 cycles
 SCF Done:  E(RB3LYP) =  -1344.41615824     A.U. after   11 cycles
 SCF Done:  E(RB3LYP) =  -1344.41593752     A.U. after   11 cycles
 SCF Done:  E(RB3LYP) =  -1344.41615487     A.U. after   13 cycles
 SCF Done:  E(RB3LYP) =  -1344.41647831     A.U. after   11 cycles
 SCF Done:  E(RB3LYP) =  -1344.41649223     A.U. after   10 cycles
 SCF Done:  E(RB3LYP) =  -1344.41651777     A.U. after   11 cycles
 SCF Done:  E(RB3LYP) =  -1344.41651528     A.U. after   11 cycles
 SCF Done:  E(RB3LYP) =  -1344.41727060     A.U. after    9 cycles
 SCF Done:  E(RB3LYP) =  -1344.41726122     A.U. after    9 cycles
 SCF Done:  E(RB3LYP) =  -1344.41727250     A.U. after   10 cycles
 SCF Done:  E(RB3LYP) =  -1344.41727889     A.U. after   10 cycles
 SCF Done:  E(RB3LYP) =  -1344.41727903     A.U. after    8 cycles
 SCF Done:  E(RB3LYP) =  -1344.41727991     A.U. after    8 cycles
 SCF Done:  E(RB3LYP) =  -1344.41727998     A.U. after    7 cycles
 SCF Done:  E(RB3LYP) =  -1344.41727997     A.U. after    7 cycles
 SCF Done:  E(RB3LYP) =  -1344.41728006     A.U. after    7 cycles
 Optimization completed.
    -- Stationary point found.
 Normal termination of Gaussian 09 at Mon Apr 24 09:32:53 2023.

 ------------------------------------------------------------------
 #N Geom=AllCheck Guess=TCheck SCRF=Check GenChk RB3LYP/ChkBas Freq
 ------------------------------------------------------------------

 Structure from the checkpoint file:  "/home/scr/helius/Gau-12614.chk"
 --
 af
 --
 Charge =  0 Multiplicity = 1

                         Standard orientation:
 ---------------------------------------------------------------------
 Center     Atomic      Atomic             Coordinates (Angstroms)
 Number     Number       Type             X           Y           Z
 ---------------------------------------------------------------------
      1         79           0       -0.135428   -0.569522    0.155399
      2         16           0        1.950976   -1.539372    0.526740
      3         15           0       -2.232757    0.321251   -0.231849
      4          6           0       -3.284650   -0.680469   -1.388958
      5          6           0       -3.440856   -2.148340   -0.967589
      6          6           0       -3.286466    0.521890    1.283881
      7          6           0       -2.668772    1.443645    2.343900
      8          6           0       -2.146755    2.005575   -1.014122
      9          6           0       -3.478509    2.714279   -1.293259
     10          1           0       -4.266060   -0.198999   -1.482332
     11          1           0       -2.799027   -0.621551   -2.370711
     12          1           0       -4.033252   -2.692847   -1.710906
     13          1           0       -3.953195   -2.243690   -0.004072
     14          1           0       -2.466522   -2.640453   -0.882768
     15          1           0       -4.278391    0.881541    0.981531
     16          1           0       -3.422467   -0.484077    1.697237
     17          1           0       -3.306813    1.478546    3.233532
     18          1           0       -2.558452    2.469590    1.975700
     19          1           0       -1.679886    1.086457    2.649902
     20          1           0       -1.575847    1.871798   -1.940939
     21          1           0       -1.513592    2.616164   -0.360070
     22          1           0       -4.107504    2.146844   -1.986932
     23          1           0       -3.291764    3.693952   -1.746977
     24          1           0       -4.052834    2.882443   -0.375868
     25          6           0        3.124624   -0.244191    0.108184
     26          6           0        3.065322    1.041863    0.671065
     27          6           0        4.184673   -0.547911   -0.760866
     28          6           0        4.029842    2.000059    0.357263
     29          1           0        2.263303    1.281378    1.363309
     30          6           0        5.155030    0.409588   -1.061104
     31          1           0        4.241707   -1.539325   -1.200700
     32          6           0        5.081161    1.689916   -0.508897
     33          1           0        3.964003    2.991088    0.800658
     34          1           0        5.968612    0.153283   -1.735691
     35          1           0        5.834684    2.435839   -0.747550
 ---------------------------------------------------------------------

 SCF Done:  E(RB3LYP) =  -1344.41728006     A.U. after    1 cycles

 The electronic state is 1-A.
 Alpha  occ. eigenvalues --  -88.80663 -77.11989 -10.21462 -10.21367 -10.21364
 Alpha  occ. eigenvalues --  -10.20188 -10.19511 -10.19375 -10.18809 -10.16512
 Alpha  occ. eigenvalues --  -10.16421 -10.16214 -10.16122 -10.15974  -7.88247
 Alpha  occ. eigenvalues --   -6.59963  -5.84635  -5.84206  -5.83805  -4.76117
 Alpha  occ. eigenvalues --   -4.76102  -4.75865  -4.15977  -2.30605  -2.28544
 Alpha  occ. eigenvalues --   -2.28404  -0.83125  -0.82313  -0.78220  -0.78042
 Alpha  occ. eigenvalues --   -0.74162  -0.72160  -0.69158  -0.65090  -0.65005
 Alpha  occ. eigenvalues --   -0.64096  -0.58128  -0.56588  -0.55553  -0.49306
 Alpha  occ. eigenvalues --   -0.48670  -0.47797  -0.47502  -0.45971  -0.44319
 Alpha  occ. eigenvalues --   -0.43681  -0.42806  -0.42569  -0.40886  -0.40204
 Alpha  occ. eigenvalues --   -0.39843  -0.39799  -0.39124  -0.38793  -0.38260
 Alpha  occ. eigenvalues --   -0.37215  -0.36375  -0.34852  -0.34638  -0.34462
 Alpha  occ. eigenvalues --   -0.32333  -0.32263  -0.31652  -0.29460  -0.29451
 Alpha  occ. eigenvalues --   -0.29162  -0.26939  -0.26165  -0.22852  -0.21562
 Alpha  occ. eigenvalues --   -0.17995
 Alpha virt. eigenvalues --   -0.01846  -0.01086   0.00764   0.02153   0.03549
 Alpha virt. eigenvalues --    0.03711   0.05110   0.05623   0.07305   0.08719
 Alpha virt. eigenvalues --    0.09928   0.10163   0.10785   0.11010   0.11979

 Mulliken charges:
               1
     1  Au  -0.125087
     2  S   -0.158212
     3  P    0.473853
     4  C   -0.445518
     5  C   -0.470664
     6  C   -0.443691
     7  C   -0.471590
     8  C   -0.455141
     9  C   -0.456020
    10  H    0.168544
    11  H    0.186762
    12  H    0.161995
    13  H    0.157723
    14  H    0.207850
    15  H    0.167861
    16  H    0.190654
    17  H    0.162586
    18  H    0.155514
    19  H    0.205080
    20  H    0.194186
    21  H    0.194097
    22  H    0.158784
    23  H    0.166962
    24  H    0.158525
    25  C   -0.048623
    26  C   -0.145210
    27  C   -0.153574
    28  C   -0.120095
    29  H    0.145029
    30  C   -0.117892
    31  H    0.139349
    32  C   -0.138556
    33  H    0.116653
    34  H    0.120222
    35  H    0.117646
 Sum of Mulliken charges =   0.00000

 Dipole moment (field-independent basis, Debye):
    X=             -8.0731    Y=              3.7605    Z=             -1.5470  Tot=              9.0394
 Quadrupole moment (field-independent basis, Debye-Ang):
   XX=           -112.4279   YY=           -122.6722   ZZ=           -122.9349
   XY=              2.6797   XZ=             -2.8066   YZ=              2.9173

  Exact polarizability: 277.593   9.576 194.597 -15.940   6.609 153.564
 Approx polarizability: 368.916  10.985 321.502 -32.881  11.240 251.049

                      1                      2                      3
                      A                      A                      A
 Frequencies --     17.9753                18.6853                27.8079
 Red. masses --      4.4567                 4.0820                 4.7492
 Frc consts  --      0.0008                 0.0008                 0.0022
 IR Inten    --      0.6376                 0.7673                 0.2020

                      4                      5                      6
                      A                      A                      A
 Frequencies --     50.1248                59.4871                70.9714
 Red. masses --      5.9517                 3.0289                 2.9227
 Frc consts  --      0.0088                 0.0063                 0.0087
 IR Inten    --      0.6523                 0.3371                 0.1240

                      7                      8                      9
                      A                      A                      A
 Frequencies --     81.0157                92.3395               114.8394
 Red. masses --      3.0246                 2.0657                 3.8931
 Frc consts  --      0.0117                 0.0104                 0.0303
 IR Inten    --      0.0450                 0.2228                 0.1642

                     10                     11                     12
                      A                      A                      A
 Frequencies --    134.0177               147.1068               175.6382
 Red. masses --      3.2017                 2.5074                 2.1545
 Frc consts  --      0.0339                 0.0320                 0.0392
 IR Inten    --      0.3565                 0.5918                 0.7768

                     13                     14                     15
                      A                      A                      A
 Frequencies --    183.2535               202.7989               224.9424
 Red. masses --      3.9557                 1.5136                 1.9907
 Frc consts  --      0.0783                 0.0367                 0.0593
 IR Inten    --      3.5332                 0.3108                 0.0934

                     16                     17                     18
                      A                      A                      A
 Frequencies --    250.6694               254.2539               262.6563
 Red. masses --      1.4294                 4.9327                 1.4695
 Frc consts  --      0.0529                 0.1879                 0.0597
 IR Inten    --      0.0422                 5.3694                 0.0874

                     19                     20                     21
                      A                      A                      A
 Frequencies --    268.0835               316.8365               363.3025
 Red. masses --      1.9157                 2.8015                10.5763
 Frc consts  --      0.0811                 0.1657                 0.8225
 IR Inten    --      0.9175                 1.2777                10.1470

                     22                     23                     24
                      A                      A                      A
 Frequencies --    377.2497               416.4160               422.9899
 Red. masses --      3.5900                 3.3000                 9.4259
 Frc consts  --      0.3010                 0.3371                 0.9936
 IR Inten    --      7.1851                 0.0223                 4.0870

                     25                     26                     27
                      A                      A                      A
 Frequencies --    436.2519               494.6435               617.9946
 Red. masses --      3.4830                 3.4615                 3.4452
 Frc consts  --      0.3906                 0.4990                 0.7752
 IR Inten    --      7.4633                 4.8619                11.5002

                     28                     29                     30
                      A                      A                      A
 Frequencies --    631.7244               672.4376               695.3669
 Red. masses --      6.4366                 2.6125                 3.2505
 Frc consts  --      1.5134                 0.6960                 0.9260
 IR Inten    --      0.1280                 3.8428                15.3315

                     31                     32                     33
                      A                      A                      A
 Frequencies --    702.7573               707.1348               751.8388
 Red. masses --      4.9657                 2.5883                 1.4542
 Frc consts  --      1.4449                 0.7625                 0.4843
 IR Inten    --     11.4524                24.4556                34.3810

                     34                     35                     36
                      A                      A                      A
 Frequencies --    756.9446               770.4957               786.9097
 Red. masses --      1.5525                 1.3087                 1.2756
 Frc consts  --      0.5241                 0.4578                 0.4654
 IR Inten    --     33.1044                17.4969                44.0513

                     37                     38                     39
                      A                      A                      A
 Frequencies --    850.7476               911.8094               965.5282
 Red. masses --      1.2470                 1.3780                 1.3451
 Frc consts  --      0.5318                 0.6750                 0.7388
 IR Inten    --      0.0384                 1.7592                 0.3542

                     40                     41                     42
                      A                      A                      A
 Frequencies --    986.9063               993.5540               996.0870
 Red. masses --      1.2370                 1.6647                 1.5714
 Frc consts  --      0.7099                 0.9682                 0.9186
 IR Inten    --      0.3150                 0.1074                 0.5158

                     43                     44                     45
                      A                      A                      A
 Frequencies --    997.7248              1010.1082              1013.7158
 Red. masses --      1.7163                 1.4470                 6.2494
 Frc consts  --      1.0066                 0.8699                 3.7837
 IR Inten    --      0.5381                 8.9913                 2.4918

                     46                     47                     48
                      A                      A                      A
 Frequencies --   1020.7156              1043.1537              1050.9714
 Red. masses --      1.4180                 1.6014                 3.2065
 Frc consts  --      0.8704                 1.0267                 2.0867
 IR Inten    --      1.6771                 5.5915                18.8849

                     49                     50                     51
                      A                      A                      A
 Frequencies --   1070.1294              1079.3721              1084.4481
 Red. masses --      1.5777                 1.7132                 1.8023
 Frc consts  --      1.0645                 1.1760                 1.2488
 IR Inten    --     58.9717                14.6919                12.9691

                     52                     53                     54
                      A                      A                      A
 Frequencies --   1102.6215              1107.4320              1188.5363
 Red. masses --      1.6101                 2.6090                 1.0945
 Frc consts  --      1.1533                 1.8852                 0.9109
 IR Inten    --      3.5647                27.6926                 0.1064

                     55                     56                     57
                      A                      A                      A
 Frequencies --   1210.0952              1280.4452              1283.2281
 Red. masses --      1.1385                 1.2380                 1.2338
 Frc consts  --      0.9822                 1.1959                 1.1970
 IR Inten    --      0.5288                 1.2283                 1.4280

                     58                     59                     60
                      A                      A                      A
 Frequencies --   1291.6474              1305.3867              1310.9808
 Red. masses --      1.1979                 1.3871                 1.3829
 Frc consts  --      1.1774                 1.3927                 1.4003
 IR Inten    --      4.7450                 2.9603                15.3390

                     61                     62                     63
                      A                      A                      A
 Frequencies --   1320.4127              1322.6949              1355.9544
 Red. masses --      2.9688                 1.3782                 1.8283
 Frc consts  --      3.0496                 1.4207                 1.9805
 IR Inten    --      1.6914                 0.4435                 0.4615

                     64                     65                     66
                      A                      A                      A
 Frequencies --   1443.7574              1444.7282              1445.3123
 Red. masses --      1.2089                 1.2075                 1.1981
 Frc consts  --      1.4847                 1.4849                 1.4746
 IR Inten    --      2.0835                 1.5774                 2.5528

                     67                     68                     69
                      A                      A                      A
 Frequencies --   1483.6858              1489.1091              1492.6107
 Red. masses --      2.1535                 1.0807                 1.0830
 Frc consts  --      2.7930                 1.4119                 1.4216
 IR Inten    --      5.7201                 2.3116                 2.5652

                     70                     71                     72
                      A                      A                      A
 Frequencies --   1494.9922              1522.1199              1528.9533
 Red. masses --      1.0837                 2.0545                 1.0436
 Frc consts  --      1.4271                 2.8045                 1.4373
 IR Inten    --     11.5400                36.5520                 5.9002

                     73                     74                     75
                      A                      A                      A
 Frequencies --   1529.5497              1531.4866              1533.8388
 Red. masses --      1.0447                 1.0426                 1.0389
 Frc consts  --      1.4401                 1.4407                 1.4400
 IR Inten    --     11.5350                 3.9585                 5.4609

                     76                     77                     78
                      A                      A                      A
 Frequencies --   1535.3006              1536.2952              1626.8043
 Red. masses --      1.0462                 1.0425                 5.3490
 Frc consts  --      1.4529                 1.4497                 8.3405
 IR Inten    --      1.7926                 5.1144                 1.4525

                     79                     80                     81
                      A                      A                      A
 Frequencies --   1641.7787              3050.5361              3051.2227
 Red. masses --      5.3805                 1.0601                 1.0580
 Frc consts  --      8.5448                 5.8120                 5.8036
 IR Inten    --     42.6125                 3.0416                12.5741

                     82                     83                     84
                      A                      A                      A
 Frequencies --   3057.2144              3057.9396              3060.5609
 Red. masses --      1.0354                 1.0356                 1.0373
 Frc consts  --      5.7019                 5.7054                 5.7248
 IR Inten    --     19.8510                22.8322                36.8780

                     85                     86                     87
                      A                      A                      A
 Frequencies --   3065.7612              3094.5433              3098.1954
 Red. masses --      1.0607                 1.1038                 1.1019
 Frc consts  --      5.8740                 6.2276                 6.2316
 IR Inten    --      4.3803                 2.9515                 6.5941

                     88                     89                     90
                      A                      A                      A
 Frequencies --   3102.5895              3122.3271              3123.1347
 Red. masses --      1.1026                 1.1015                 1.1026
 Frc consts  --      6.2535                 6.3269                 6.3365
 IR Inten    --      0.1761                24.6816                 7.2013

                     91                     92                     93
                      A                      A                      A
 Frequencies --   3124.1867              3132.0120              3133.6683
 Red. masses --      1.1021                 1.1033                 1.1034
 Frc consts  --      6.3380                 6.3768                 6.3840
 IR Inten    --     34.5952                21.0149                29.8940

                     94                     95                     96
                      A                      A                      A
 Frequencies --   3135.0508              3174.6242              3182.7102
 Red. masses --      1.1029                 1.0845                 1.0881
 Frc consts  --      6.3868                 6.4395                 6.4941
 IR Inten    --     20.8864                 4.5538                15.1234

                     97                     98                     99
                      A                      A                      A
 Frequencies --   3198.8274              3204.5176              3210.8420
 Red. masses --      1.0917                 1.0936                 1.0963
 Frc consts  --      6.5819                 6.6167                 6.6591
 IR Inten    --     34.7796                25.0220                14.6711

 - Thermochemistry -
 -------------------
 Temperature   298.150 Kelvin.  Pressure   1.00000 Atm.
 Atom     1 has atomic number 79 and mass 196.96660

 Molecular mass:   424.06894 amu.
 Principal axes and moments of inertia in atomic units:
                           1         2         3
     Eigenvalues --  2884.279869846.03767**********
           X            0.99999  -0.00326  -0.00096
           Y            0.00329   0.99927   0.03799
           Z            0.00083  -0.03799   0.99928
 This molecule is an asymmetric top.
 Rotational symmetry number  1.
 Warning -- assumption of classical behavior for rotation
           may cause significant error
 Rotational temperatures (Kelvin)      0.03003     0.00880     0.00793
 Rotational constants (GHZ):           0.62572     0.18330     0.16527
 Zero-point vibrational energy     773823.3 (Joules/Mol)
                                  184.94821 (Kcal/Mol)
 Warning -- explicit consideration of  27 degrees of freedom as
           vibrations may cause significant error
 Vibrational temperatures:     25.86    26.88    40.01    72.12    85.59
          (Kelvin)            102.11   116.56   132.86   165.23   192.82
                              211.65   252.70   263.66   291.78   323.64
                              360.66   365.81   377.90   385.71   455.86
                              522.71   542.78   599.13   608.59   627.67
                              711.68   889.16   908.91   967.49  1000.48
                             1011.11  1017.41  1081.73  1089.07  1108.57
                             1132.19  1224.03  1311.89  1389.18  1419.94
                             1429.50  1433.15  1435.50  1453.32  1458.51
                             1468.58  1500.86  1512.11  1539.68  1552.97
                             1560.28  1586.42  1593.35  1710.04  1741.05
                             1842.27  1846.28  1858.39  1878.16  1886.21
                             1899.78  1903.06  1950.91  2077.24  2078.64
                             2079.48  2134.69  2142.49  2147.53  2150.96
                             2189.99  2199.82  2200.68  2203.46  2206.85
                             2208.95  2210.38  2340.61  2362.15  4389.04
                             4390.02  4398.64  4399.69  4403.46  4410.94
                             4452.35  4457.61  4463.93  4492.33  4493.49
                             4495.00  4506.26  4508.64  4510.63  4567.57
                             4579.20  4602.39  4610.58  4619.68

 Zero-point correction=                           0.294734 (Hartree/Particle)
 Thermal correction to Energy=                    0.314480
 Thermal correction to Enthalpy=                  0.315425
 Thermal correction to Gibbs Free Energy=         0.241982
 Sum of electronic and zero-point Energies=          -1344.122546
 Sum of electronic and thermal Energies=             -1344.102800
 Sum of electronic and thermal Enthalpies=           -1344.101856
 Sum of electronic and thermal Free Energies=        -1344.175298

                     E (Thermal)             CV                S
                      KCal/Mol        Cal/Mol-Kelvin    Cal/Mol-Kelvin
 Total                  197.339             69.158            154.572
 Electronic               0.000              0.000              0.000
 Translational            0.889              2.981             44.025
 Rotational               0.889              2.981             34.094
 Vibrational            195.562             63.196             76.454
 Vibration     1          0.593              1.986              6.846
 Vibration     2          0.593              1.986              6.769
 Vibration     3          0.593              1.984              5.980
 Vibration     4          0.595              1.978              4.812
 Vibration     5          0.597              1.974              4.474
 Vibration     6          0.598              1.968              4.126
 Vibration     7          0.600              1.962              3.866
 Vibration     8          0.602              1.955              3.610
 Vibration     9          0.608              1.937              3.185
 Vibration    10          0.613              1.919              2.888
 Vibration    11          0.617              1.906              2.709
 Vibration    12          0.628              1.872              2.374
 Vibration    13          0.631              1.863              2.295
 Vibration    14          0.639              1.836              2.108
 Vibration    15          0.650              1.803              1.919
 Vibration    16          0.663              1.762              1.726
 Vibration    17          0.665              1.756              1.701
 Vibration    18          0.670              1.741              1.644
 Vibration    19          0.673              1.732              1.609
 Vibration    20          0.704              1.641              1.326
 Vibration    21          0.737              1.548              1.108
 Vibration    22          0.748              1.519              1.050
 Vibration    23          0.780              1.435              0.904
 Vibration    24          0.785              1.420              0.882
 Vibration    25          0.797              1.391              0.838
 Vibration    26          0.850              1.262              0.672
 Vibration    27          0.978              0.994              0.420

 Optimization completed.
    -- Stationary point found.
 Normal termination of Gaussian 09 at Mon Apr 24 09:40:20 2023.
