 Gaussian 09, Revision D.01,
 Gaussian 09:  EM64L-G09RevD.01 24-Apr-2013

 ----------------------------------------
 # opt freq=noraman b3lyp/gen pseudo=read
 ----------------------------------------

 --
 af
 --
 Symbolic Z-matrix:
 Charge =  0 Multiplicity = 1

 SCF Done:  E(RB3LYP) =  -1399.76717695     A.U. after   15 cycles
 SCF Done:  E(RB3LYP) =  -1399.76718117     A.U. after   12 cycles
 SCF Done:  E(RB3LYP) =  -1399.76875144     A.U. after   12 cycles
 SCF Done:  E(RB3LYP) =  -1399.76726174     A.U. after   13 cycles
 SCF Done:  E(RB3LYP) =  -1399.76885221     A.U. after    9 cycles
 SCF Done:  E(RB3LYP) =  -1399.76998850     A.U. after   13 cycles
 SCF Done:  E(RB3LYP) =  -1399.77063587     A.U. after   14 cycles
 SCF Done:  E(RB3LYP) =  -1399.77141144     A.U. after   11 cycles
 SCF Done:  E(RB3LYP) =  -1399.77171200     A.U. after   11 cycles
 SCF Done:  E(RB3LYP) =  -1399.77176230     A.U. after   11 cycles
 SCF Done:  E(RB3LYP) =  -1399.77179811     A.U. after   11 cycles
 SCF Done:  E(RB3LYP) =  -1399.77183833     A.U. after   10 cycles
 SCF Done:  E(RB3LYP) =  -1399.77185125     A.U. after   10 cycles
 SCF Done:  E(RB3LYP) =  -1399.77185618     A.U. after    9 cycles
 SCF Done:  E(RB3LYP) =  -1399.77185593     A.U. after    8 cycles
 SCF Done:  E(RB3LYP) =  -1399.77185571     A.U. after    8 cycles
 SCF Done:  E(RB3LYP) =  -1399.77185592     A.U. after    7 cycles
 SCF Done:  E(RB3LYP) =  -1399.77185594     A.U. after    6 cycles
 Optimization completed.
    -- Stationary point found.

 1\1\GINC-NEQC31\FOpt\RB3LYP\Gen\C12H21Au1N1P1S1\GUEST2\02-May-2023\0\\
 # opt freq=noraman b3lyp/gen pseudo=read\\af\\0,1\Au,-0.1453889657,-0.
 630530547,0.6496942758\S,1.9812661451,-1.3026285466,1.3377754545\P,-2.
 2452102905,0.0616764418,-0.0313442007\C,-3.297653054,-1.2657093053,-0.
 7921402846\C,-3.4583969374,-2.5084802574,0.094564236\C,-3.3083340924,0
 .7682990592,1.317242919\C,-2.6819813029,1.979616907,2.0209218711\C,-2.
 1343630194,1.3837102917,-1.3342000869\C,-3.4501553768,1.9897923612,-1.
 8382980404\H,-4.2773163338,-0.8402707045,-1.043511376\H,-2.8109369648,

 Normal termination of Gaussian 09 at Tue May  2 07:12:11 2023.

 ------------------------------------------------------------------
 #N Geom=AllCheck Guess=TCheck SCRF=Check GenChk RB3LYP/ChkBas Freq
 ------------------------------------------------------------------

 Structure from the checkpoint file:  "/home/scr/guest2/Gau-13016.chk"
 --
 af
 --
 Charge =  0 Multiplicity = 1

                         Standard orientation:
 ---------------------------------------------------------------------
 Center     Atomic      Atomic             Coordinates (Angstroms)
 Number     Number       Type             X           Y           Z
 ---------------------------------------------------------------------
      1         79           0       -0.254613   -0.600524    0.246428
      2         16           0        1.825297   -1.536577    0.742022
      3         15           0       -2.305934    0.352124   -0.240146
      4          6           0       -3.484423   -0.753591   -1.155000
      5          6           0       -3.725783   -2.102938   -0.463935
      6          6           0       -3.271851    0.921041    1.240250
      7          6           0       -2.528962    1.954832    2.097084
      8          6           0       -2.118217    1.848335   -1.328084
      9          6           0       -3.391198    2.627030   -1.682925
     10          1           0       -4.431224   -0.218569   -1.300759
     11          1           0       -3.046263   -0.913042   -2.147872
     12          1           0       -4.395191   -2.723239   -1.069843
     13          1           0       -4.191437   -1.979688    0.519856
     14          1           0       -2.786933   -2.649391   -0.326621
     15          1           0       -4.239125    1.313484    0.901895
     16          1           0       -3.480403    0.024117    1.834712
     17          1           0       -3.129426    2.221877    2.973433
     18          1           0       -2.328689    2.876566    1.539879
     19          1           0       -1.570808    1.559735    2.450476
     20          1           0       -1.617820    1.489030   -2.235607
     21          1           0       -1.392943    2.500321   -0.827563
     22          1           0       -4.117160    2.007090   -2.219192
     23          1           0       -3.141049    3.473328   -2.332430
     24          1           0       -3.883857    3.033257   -0.793372
     25          6           0        2.938779   -0.181008    0.313137
     26          6           0        3.254485    0.803828    1.257119
     27          6           0        3.538732   -0.127216   -0.970506
     28          6           0        4.130611    1.847744    0.959254
     29          1           0        2.792140    0.741031    2.238145
     30          6           0        4.420189    0.931637   -1.259798
     31          7           0        3.302364   -1.119365   -1.915968
     32          6           0        4.710077    1.906970   -0.310922
     33          1           0        4.358363    2.601048    1.708363
     34          1           0        4.884237    0.972957   -2.243624
     35          1           0        2.486824   -1.690535   -1.723299
     36          1           0        3.382772   -0.831180   -2.882206
     37          1           0        5.395477    2.712135   -0.564653
 ---------------------------------------------------------------------

 SCF Done:  E(RB3LYP) =  -1399.77185594     A.U. after    1 cycles

 The electronic state is 1-A.
 Alpha  occ. eigenvalues --  -88.80836 -77.12018 -14.30590 -10.21493 -10.21477
 Alpha  occ. eigenvalues --  -10.21378 -10.20208 -10.20029 -10.19513 -10.19459
 Alpha  occ. eigenvalues --  -10.17786 -10.15885 -10.15598 -10.15411 -10.14968
 Alpha  occ. eigenvalues --   -7.88355  -6.59991  -5.84732  -5.84338  -5.83915
 Alpha  occ. eigenvalues --   -4.76144  -4.76132  -4.75892  -4.15971  -2.30591
 Alpha  occ. eigenvalues --   -2.28525  -2.28421  -0.89338  -0.82344  -0.81010
 Alpha  occ. eigenvalues --   -0.78306  -0.78050  -0.73679  -0.70093  -0.69206
 Alpha  occ. eigenvalues --   -0.65089  -0.64795  -0.64160  -0.57967  -0.56580
 Alpha  occ. eigenvalues --   -0.55479  -0.49317  -0.49082  -0.48312  -0.47819
 Alpha  occ. eigenvalues --   -0.47604  -0.46014  -0.44427  -0.44272  -0.43239
 Alpha  occ. eigenvalues --   -0.40942  -0.40469  -0.40233  -0.40094  -0.39856
 Alpha  occ. eigenvalues --   -0.39021  -0.38818  -0.38178  -0.37276  -0.36544
 Alpha  occ. eigenvalues --   -0.35687  -0.34708  -0.34626  -0.33186  -0.32069
 Alpha  occ. eigenvalues --   -0.31655  -0.29490  -0.29462  -0.29109  -0.28284
 Alpha  occ. eigenvalues --   -0.26904  -0.26197  -0.20496  -0.19516  -0.17327
 Alpha virt. eigenvalues --   -0.01753  -0.01280   0.00749   0.03387   0.03574
 Alpha virt. eigenvalues --    0.04187   0.05136   0.05588   0.06954   0.08747
 Alpha virt. eigenvalues --    0.09859   0.10069   0.10578   0.10928   0.11574

 Mulliken charges:
               1
     1  Au  -0.120855
     2  S   -0.191979
     3  P    0.479725
     4  C   -0.445735
     5  C   -0.470541
     6  C   -0.444546
     7  C   -0.472009
     8  C   -0.454483
     9  C   -0.455932
    10  H    0.169008
    11  H    0.184793
    12  H    0.161811
    13  H    0.159342
    14  H    0.206116
    15  H    0.167901
    16  H    0.191049
    17  H    0.162370
    18  H    0.156997
    19  H    0.206431
    20  H    0.191064
    21  H    0.197975
    22  H    0.157643
    23  H    0.166974
    24  H    0.159363
    25  C   -0.120669
    26  C   -0.149603
    27  C    0.295899
    28  C   -0.129395
    29  H    0.138454
    30  C   -0.168986
    31  N   -0.781357
    32  C   -0.139402
    33  H    0.109768
    34  H    0.105474
    35  H    0.352860
    36  H    0.310825
    37  H    0.113651
 Sum of Mulliken charges =   0.00000

 Dipole moment (field-independent basis, Debye):
    X=             -8.8613    Y=              3.7183    Z=             -2.9556  Tot=             10.0540
 Quadrupole moment (field-independent basis, Debye-Ang):
   XX=           -125.8967   YY=           -131.1676   ZZ=           -122.0816
   XY=              4.3710   XZ=             -3.9697   YZ=              3.2121

  Exact polarizability: 263.286  21.782 195.817  -5.843   8.517 187.187
 Approx polarizability: 348.603  35.236 320.620 -13.089  17.027 319.130

                      1                      2                      3
                      A                      A                      A
 Frequencies --     16.2568                21.9579                24.9653
 Red. masses --      4.4365                 4.1132                 5.3569
 Frc consts  --      0.0007                 0.0012                 0.0020
 IR Inten    --      0.1710                 0.4117                 0.3398

                      4                      5                      6
                      A                      A                      A
 Frequencies --     47.8239                58.7670                61.7058
 Red. masses --      5.5678                 4.2229                 2.5119
 Frc consts  --      0.0075                 0.0086                 0.0056
 IR Inten    --      0.3141                 0.2074                 0.0114

                      7                      8                      9
                      A                      A                      A
 Frequencies --     80.4934                88.1030               114.1905
 Red. masses --      3.0485                 2.0131                 3.9038
 Frc consts  --      0.0116                 0.0092                 0.0300
 IR Inten    --      0.0218                 0.2479                 0.1518

                     10                     11                     12
                      A                      A                      A
 Frequencies --    132.7686               140.9019               152.5071
 Red. masses --      3.0481                 2.9584                 3.4087
 Frc consts  --      0.0317                 0.0346                 0.0467
 IR Inten    --      0.8645                 0.4100                 1.3697

                     13                     14                     15
                      A                      A                      A
 Frequencies --    176.1160               193.5186               223.7239
 Red. masses --      1.9001                 1.4395                 2.1010
 Frc consts  --      0.0347                 0.0318                 0.0620
 IR Inten    --      0.8167                 0.0933                 0.4584

                     16                     17                     18
                      A                      A                      A
 Frequencies --    248.4508               251.4844               255.4040
 Red. masses --      1.4981                 2.9768                 1.6955
 Frc consts  --      0.0545                 0.1109                 0.0652
 IR Inten    --      0.8012                11.6980                 2.6909

                     19                     20                     21
                      A                      A                      A
 Frequencies --    265.8574               268.9891               316.1776
 Red. masses --      3.2233                 2.3173                 2.8690
 Frc consts  --      0.1342                 0.0988                 0.1690
 IR Inten    --      6.7435                 0.2999                 1.6970

                     22                     23                     24
                      A                      A                      A
 Frequencies --    342.1956               360.7178               375.9258
 Red. masses --     10.9912                 1.1145                 3.6640
 Frc consts  --      0.7583                 0.0854                 0.3051
 IR Inten    --      7.3844                63.3164                 4.6987

                     25                     26                     27
                      A                      A                      A
 Frequencies --    384.1652               435.9290               459.5654
 Red. masses --      5.3265                 3.4861                 3.1798
 Frc consts  --      0.4632                 0.3903                 0.3957
 IR Inten    --      2.2321                 6.9011                17.6238

                     28                     29                     30
                      A                      A                      A
 Frequencies --    467.4280               545.5831               564.8249
 Red. masses --      4.0119                 2.6643                 6.3651
 Frc consts  --      0.5165                 0.4673                 1.1964
 IR Inten    --      2.5924                67.1544                 9.4116

                     31                     32                     33
                      A                      A                      A
 Frequencies --    600.5960               617.3676               673.5345
 Red. masses --      1.5899                 3.4385                 2.5852
 Frc consts  --      0.3379                 0.7722                 0.6910
 IR Inten    --    212.6712                 8.2446                 3.8659

                     34                     35                     36
                      A                      A                      A
 Frequencies --    685.4757               697.6001               740.2689
 Red. masses --      6.4089                 3.2313                 3.3831
 Frc consts  --      1.7742                 0.9265                 1.0923
 IR Inten    --     12.0082                10.8214                 3.4636

                     37                     38                     39
                      A                      A                      A
 Frequencies --    751.5899               758.3313               770.9529
 Red. masses --      1.4594                 1.3221                 1.2966
 Frc consts  --      0.4857                 0.4479                 0.4541
 IR Inten    --     34.6748                57.7224                14.9015

                     40                     41                     42
                      A                      A                      A
 Frequencies --    786.5365               845.4779               853.5912
 Red. masses --      1.2848                 2.3665                 2.1859
 Frc consts  --      0.4683                 0.9967                 0.9384
 IR Inten    --     44.3106                 1.0319                 4.9645

                     43                     44                     45
                      A                      A                      A
 Frequencies --    931.9192               959.1140               994.0358
 Red. masses --      1.3364                 1.2280                 1.6950
 Frc consts  --      0.6838                 0.6656                 0.9868
 IR Inten    --      1.6728                 0.1209                 0.3055

                     46                     47                     48
                      A                      A                      A
 Frequencies --    995.8123               998.5277              1010.5051
 Red. masses --      1.5148                 1.6439                 1.5278
 Frc consts  --      0.8851                 0.9657                 0.9192
 IR Inten    --      0.4295                 0.4608                 8.3908

                     49                     50                     51
                      A                      A                      A
 Frequencies --   1020.1486              1043.6314              1045.9014
 Red. masses --      1.3841                 1.6299                 4.3069
 Frc consts  --      0.8487                 1.0459                 2.7759
 IR Inten    --      2.2131                 5.1759                14.3420

                     52                     53                     54
                      A                      A                      A
 Frequencies --   1072.5797              1074.5398              1079.2165
 Red. masses --      1.6072                 2.0878                 1.7337
 Frc consts  --      1.0894                 1.4203                 1.1897
 IR Inten    --     56.4972                 1.0013                17.1178

                     55                     56                     57
                      A                      A                      A
 Frequencies --   1084.1548              1104.6655              1172.3129
 Red. masses --      1.8009                 1.8910                 1.2608
 Frc consts  --      1.2471                 1.3596                 1.0209
 IR Inten    --     13.7926                21.3031                 4.7192

                     58                     59                     60
                      A                      A                      A
 Frequencies --   1190.4947              1280.0106              1281.4563
 Red. masses --      1.0982                 1.2333                 1.2384
 Frc consts  --      0.9170                 1.1905                 1.1982
 IR Inten    --      7.4776                 1.2494                 1.0792

                     61                     62                     63
                      A                      A                      A
 Frequencies --   1290.7666              1291.4087              1306.6336
 Red. masses --      2.0138                 1.1974                 1.3934
 Frc consts  --      1.9768                 1.1765                 1.4016
 IR Inten    --      6.9225                 5.6482                 1.4407

                     64                     65                     66
                      A                      A                      A
 Frequencies --   1311.0669              1321.8437              1341.1922
 Red. masses --      1.3790                 1.3893                 2.4590
 Frc consts  --      1.3966                 1.4303                 2.6061
 IR Inten    --     16.3832                 0.5211                31.3540

                     67                     68                     69
                      A                      A                      A
 Frequencies --   1361.3822              1441.0284              1444.5451
 Red. masses --      3.0625                 1.2076                 1.2048
 Frc consts  --      3.3442                 1.4774                 1.4813
 IR Inten    --      9.3002                 0.5512                 2.9652

                     70                     71                     72
                      A                      A                      A
 Frequencies --   1445.3922              1490.2477              1491.8884
 Red. masses --      1.2004                 1.0786                 1.0833
 Frc consts  --      1.4775                 1.4113                 1.4206
 IR Inten    --      2.4291                 1.0724                 5.4469

                     73                     74                     75
                      A                      A                      A
 Frequencies --   1492.6594              1493.9375              1526.6529
 Red. masses --      2.3588                 1.0872                 2.5216
 Frc consts  --      3.0965                 1.4296                 3.4626
 IR Inten    --     17.5499                 9.3056                40.6865

                     76                     77                     78
                      A                      A                      A
 Frequencies --   1528.7272              1529.5006              1531.3938
 Red. masses --      1.0454                 1.0425                 1.0448
 Frc consts  --      1.4394                 1.4370                 1.4436
 IR Inten    --      7.8945                11.4656                 4.7952

                     79                     80                     81
                      A                      A                      A
 Frequencies --   1532.3731              1534.1410              1535.0489
 Red. masses --      1.0393                 1.0415                 1.0469
 Frc consts  --      1.4378                 1.4443                 1.4535
 IR Inten    --      6.0923                 1.2546                 4.8578

                     82                     83                     84
                      A                      A                      A
 Frequencies --   1621.7289              1640.8991              1672.4599
 Red. masses --      4.9068                 2.7613                 1.5449
 Frc consts  --      7.6033                 4.3805                 2.5460
 IR Inten    --      0.2468                 1.5472               123.3037

                     85                     86                     87
                      A                      A                      A
 Frequencies --   3049.6238              3051.8627              3057.0264
 Red. masses --      1.0585                 1.0587                 1.0357
 Frc consts  --      5.8003                 5.8096                 5.7027
 IR Inten    --      6.9511                 7.0169                20.1715

                     88                     89                     90
                      A                      A                      A
 Frequencies --   3057.4506              3059.4653              3064.0995
 Red. masses --      1.0357                 1.0378                 1.0608
 Frc consts  --      5.7044                 5.7233                 5.8677
 IR Inten    --     22.9823                36.2963                 4.7648

                     91                     92                     93
                      A                      A                      A
 Frequencies --   3093.4339              3098.0779              3101.4897
 Red. masses --      1.1038                 1.1023                 1.1024
 Frc consts  --      6.2236                 6.2334                 6.2477
 IR Inten    --      3.2340                 6.2611                 0.4080

                     94                     95                     96
                      A                      A                      A
 Frequencies --   3121.3832              3122.5780              3123.6646
 Red. masses --      1.1015                 1.1027                 1.1022
 Frc consts  --      6.3229                 6.3349                 6.3363
 IR Inten    --     21.1442                 9.1471                35.8706

                     97                     98                     99
                      A                      A                      A
 Frequencies --   3132.2180              3133.0772              3134.3578
 Red. masses --      1.1031                 1.1034                 1.1032
 Frc consts  --      6.3766                 6.3816                 6.3854
 IR Inten    --     16.6638                35.2142                18.5743

                    100                    101                    102
                      A                      A                      A
 Frequencies --   3165.2273              3183.4231              3195.4948
 Red. masses --      1.0864                 1.0878                 1.0918
 Frc consts  --      6.4128                 6.4953                 6.5686
 IR Inten    --     14.8951                13.3342                32.4620

                    103                    104                    105
                      A                      A                      A
 Frequencies --   3209.0597              3532.1434              3647.6868
 Red. masses --      1.0965                 1.0482                 1.0979
 Frc consts  --      6.6528                 7.7049                 8.6073
 IR Inten    --     26.4798                25.2750                21.2531

 - Thermochemistry -
 -------------------
 Temperature   298.150 Kelvin.  Pressure   1.00000 Atm.
 Atom     1 has atomic number 79 and mass 196.96660

 Molecular mass:   439.07983 amu.
 Principal axes and moments of inertia in atomic units:
                           1         2         3
     Eigenvalues --  3422.97211********************
           X            0.99999  -0.00409   0.00035
           Y            0.00407   0.99856   0.05357
           Z           -0.00057  -0.05357   0.99856
 This molecule is an asymmetric top.
 Rotational symmetry number  1.
 Warning -- assumption of classical behavior for rotation
           may cause significant error
 Rotational temperatures (Kelvin)      0.02530     0.00848     0.00783
 Rotational constants (GHZ):           0.52724     0.17673     0.16314
 Zero-point vibrational energy     817687.1 (Joules/Mol)
                                  195.43191 (Kcal/Mol)
 Warning -- explicit consideration of  32 degrees of freedom as
           vibrations may cause significant error
 Vibrational temperatures:     23.39    31.59    35.92    68.81    84.55
          (Kelvin)             88.78   115.81   126.76   164.29   191.02
                              202.73   219.42   253.39   278.43   321.89
                              357.46   361.83   367.47   382.51   387.01
                              454.91   492.34   518.99   540.87   552.73
                              627.20   661.21   672.52   784.97   812.66
                              864.12   888.25   969.06   986.25  1003.69
                             1065.08  1081.37  1091.07  1109.23  1131.65
                             1216.45  1228.13  1340.82  1379.95  1430.19
                             1432.75  1436.66  1453.89  1467.76  1501.55
                             1504.82  1543.20  1546.02  1552.75  1559.86
                             1589.37  1686.69  1712.85  1841.65  1843.73
                             1857.12  1858.05  1879.95  1886.33  1901.84
                             1929.67  1958.72  2073.32  2078.38  2079.59
                             2144.13  2146.49  2147.60  2149.44  2196.51
                             2199.49  2200.61  2203.33  2204.74  2207.28
                             2208.59  2333.30  2360.88  2406.29  4387.72
                             4390.94  4398.37  4398.98  4401.88  4408.55
                             4450.76  4457.44  4462.35  4490.97  4492.69
                             4494.25  4506.56  4507.79  4509.64  4554.05
                             4580.23  4597.60  4617.12  5081.96  5248.20

 Zero-point correction=                           0.311441 (Hartree/Particle)
 Thermal correction to Energy=                    0.332573
 Thermal correction to Enthalpy=                  0.333517
 Thermal correction to Gibbs Free Energy=         0.257421
 Sum of electronic and zero-point Energies=          -1399.460415
 Sum of electronic and thermal Energies=             -1399.439283
 Sum of electronic and thermal Enthalpies=           -1399.438339
 Sum of electronic and thermal Free Energies=        -1399.514435

                     E (Thermal)             CV                S
                      KCal/Mol        Cal/Mol-Kelvin    Cal/Mol-Kelvin
 Total                  208.693             74.956            160.157
 Electronic               0.000              0.000              0.000
 Translational            0.889              2.981             44.128
 Rotational               0.889              2.981             34.313
 Vibrational            206.915             68.994             81.715
 Vibration     1          0.593              1.986              7.046
 Vibration     2          0.593              1.985              6.449
 Vibration     3          0.593              1.985              6.194
 Vibration     4          0.595              1.978              4.905
 Vibration     5          0.596              1.974              4.498
 Vibration     6          0.597              1.973              4.402
 Vibration     7          0.600              1.962              3.879
 Vibration     8          0.601              1.958              3.702
 Vibration     9          0.607              1.938              3.196
 Vibration    10          0.613              1.921              2.906
 Vibration    11          0.615              1.912              2.792
 Vibration    12          0.619              1.900              2.641
 Vibration    13          0.628              1.872              2.369
 Vibration    14          0.635              1.849              2.194
 Vibration    15          0.649              1.805              1.929
 Vibration    16          0.662              1.765              1.742
 Vibration    17          0.663              1.760              1.720
 Vibration    18          0.666              1.754              1.693
 Vibration    19          0.672              1.736              1.623
 Vibration    20          0.673              1.730              1.603
 Vibration    21          0.703              1.643              1.330
 Vibration    22          0.721              1.591              1.202
 Vibration    23          0.735              1.553              1.119
 Vibration    24          0.747              1.521              1.056
 Vibration    25          0.753              1.504              1.023
 Vibration    26          0.796              1.392              0.840
 Vibration    27          0.817              1.340              0.767
 Vibration    28          0.825              1.322              0.745
 Vibration    29          0.901              1.149              0.553
 Vibration    30          0.921              1.107              0.514
 Vibration    31          0.959              1.031              0.449
 Vibration    32          0.977              0.995              0.421

 Optimization completed.
    -- Stationary point found.

 1\1\GINC-NEQC31\Freq\RB3LYP\Gen\C12H21Au1N1P1S1\GUEST2\02-May-2023\0\\
 #N Geom=AllCheck Guess=TCheck SCRF=Check GenChk RB3LYP/ChkBas Freq\\af
 \\0,1\Au,-0.1453889657,-0.630530547,0.6496942758\S,1.9812661451,-1.302
 6285466,1.3377754545\P,-2.2452102905,0.0616764418,-0.0313442007\C,-3.2
 97653054,-1.2657093053,-0.7921402846\C,-3.4583969374,-2.5084802574,0.0
 94564236\C,-3.3083340924,0.7682990592,1.317242919\C,-2.6819813029,1.97
 9616907,2.0209218711\C,-2.1343630194,1.3837102917,-1.3342000869\C,-3.4
 501553768,1.9897923612,-1.8382980404\H,-4.2773163338,-0.8402707045,-1.

 Normal termination of Gaussian 09 at Tue May  2 07:17:16 2023.
