 Gaussian 09, Revision D.01,
 Gaussian 09:  EM64L-G09RevD.01 24-Apr-2013

 ----------------------------------------
 # opt freq=noraman b3lyp/gen pseudo=read
 ----------------------------------------

 --
 af
 --
 Symbolic Z-matrix:
 Charge =  0 Multiplicity = 1

 SCF Done:  E(RB3LYP) =  -1360.45251717     A.U. after   15 cycles
 SCF Done:  E(RB3LYP) =  -1360.45063114     A.U. after   13 cycles
 SCF Done:  E(RB3LYP) =  -1360.45298117     A.U. after    9 cycles
 SCF Done:  E(RB3LYP) =  -1360.45389237     A.U. after   11 cycles
 SCF Done:  E(RB3LYP) =  -1360.45378060     A.U. after   11 cycles
 SCF Done:  E(RB3LYP) =  -1360.45284358     A.U. after   12 cycles
 SCF Done:  E(RB3LYP) =  -1360.45404822     A.U. after    7 cycles
 SCF Done:  E(RB3LYP) =  -1360.45419306     A.U. after   11 cycles
 SCF Done:  E(RB3LYP) =  -1360.45419410     A.U. after    9 cycles
 SCF Done:  E(RB3LYP) =  -1360.45419555     A.U. after    9 cycles
 SCF Done:  E(RB3LYP) =  -1360.45413277     A.U. after   14 cycles
 SCF Done:  E(RB3LYP) =  -1360.45424571     A.U. after   12 cycles
 SCF Done:  E(RB3LYP) =  -1360.45425942     A.U. after   11 cycles
 SCF Done:  E(RB3LYP) =  -1360.45426079     A.U. after   10 cycles
 SCF Done:  E(RB3LYP) =  -1360.45426173     A.U. after   10 cycles
 SCF Done:  E(RB3LYP) =  -1360.45426205     A.U. after    8 cycles
 SCF Done:  E(RB3LYP) =  -1360.45426190     A.U. after    7 cycles
 SCF Done:  E(RB3LYP) =  -1360.45426197     A.U. after    7 cycles
 SCF Done:  E(RB3LYP) =  -1360.45426200     A.U. after    6 cycles
 Optimization completed.
    -- Stationary point found.

 1\1\GINC-NEQC31\FOpt\RB3LYP\Gen\C11H19Au1N1P1S1\GUEST2\02-May-2023\0\\
 # opt freq=noraman b3lyp/gen pseudo=read\\af\\0,1\Au,0.137672924,-0.57
 5607784,-0.0399040776\S,-1.9428625226,-1.6223187635,-0.1352983671\P,2.
 2707978962,0.3243396079,-0.0315463992\C,2.8124428867,1.0334153298,1.59
 67732548\C,2.7952385825,0.0167164407,2.7461408041\H,2.1235334095,1.857
 462784,1.8157183563\H,3.8102259537,1.4741911148,1.4765622987\H,3.06378
 08853,0.5062102323,3.6884916819\H,1.8016917509,-0.4279693603,2.8658254
 201\H,3.5104307365,-0.7967459068,2.5814026081\C,3.559228726,-0.9342788

 Normal termination of Gaussian 09 at Tue May  2 07:47:45 2023.

 ------------------------------------------------------------------
 #N Geom=AllCheck Guess=TCheck SCRF=Check GenChk RB3LYP/ChkBas Freq
 ------------------------------------------------------------------

 Structure from the checkpoint file:  "/home/scr/guest2/Gau-16482.chk"
 --
 af
 --
 Charge =  0 Multiplicity = 1

                         Standard orientation:
 ---------------------------------------------------------------------
 Center     Atomic      Atomic             Coordinates (Angstroms)
 Number     Number       Type             X           Y           Z
 ---------------------------------------------------------------------
      1         79           0        0.158528   -0.551548   -0.090622
      2         16           0       -1.917151   -1.610034   -0.157676
      3         15           0        2.286633    0.360029   -0.110459
      4          6           0        2.842417    1.080184    1.508206
      5          6           0        2.843568    0.069172    2.662706
      6          1           0        2.151460    1.901554    1.730729
      7          1           0        3.836365    1.525778    1.374718
      8          1           0        3.119861    0.564830    3.599578
      9          1           0        1.853872   -0.380312    2.795639
     10          1           0        3.561349   -0.741200    2.494041
     11          6           0        3.576795   -0.893835   -0.577024
     12          6           0        5.037063   -0.423199   -0.589967
     13          1           0        3.280913   -1.267884   -1.564661
     14          1           0        3.447927   -1.736602    0.111860
     15          1           0        5.691796   -1.249084   -0.889394
     16          1           0        5.198046    0.395842   -1.298608
     17          1           0        5.367173   -0.086167    0.398306
     18          6           0        2.508120    1.744005   -1.328184
     19          6           0        1.475481    2.870058   -1.178210
     20          1           0        2.425597    1.290419   -2.323436
     21          1           0        3.527250    2.139261   -1.234977
     22          1           0        1.635147    3.632848   -1.947989
     23          1           0        0.455432    2.487249   -1.286804
     24          1           0        1.549778    3.365475   -0.203974
     25          6           0       -3.163808   -0.338577    0.021367
     26          6           0       -2.938473    0.898398    0.660342
     27          7           0       -4.366228   -0.671749   -0.468158
     28          6           0       -3.987394    1.804432    0.760745
     29          1           0       -1.962047    1.126181    1.074601
     30          6           0       -5.367739    0.207562   -0.350628
     31          6           0       -5.239485    1.461227    0.243549
     32          1           0       -3.832440    2.765355    1.246171
     33          1           0       -6.325215   -0.113037   -0.760449
     34          1           0       -6.086727    2.137560    0.303204
 ---------------------------------------------------------------------

 SCF Done:  E(RB3LYP) =  -1360.45426200     A.U. after    1 cycles

 The electronic state is 1-A.
 Alpha  occ. eigenvalues --  -88.80879 -77.12254 -14.30032 -10.22148 -10.21707
 Alpha  occ. eigenvalues --  -10.21647 -10.21644 -10.20381 -10.19706 -10.19683
 Alpha  occ. eigenvalues --  -10.19613 -10.18310 -10.17088 -10.16892  -7.88536
 Alpha  occ. eigenvalues --   -6.60237  -5.84909  -5.84460  -5.84121  -4.76389
 Alpha  occ. eigenvalues --   -4.76376  -4.76138  -4.16374  -2.30984  -2.28964
 Alpha  occ. eigenvalues --   -2.28797  -0.91808  -0.82569  -0.78481  -0.78286
 Alpha  occ. eigenvalues --   -0.78053  -0.75342  -0.69420  -0.66796  -0.65308
 Alpha  occ. eigenvalues --   -0.64364  -0.60791  -0.57916  -0.56529  -0.49589
 Alpha  occ. eigenvalues --   -0.49209  -0.48021  -0.47804  -0.46210  -0.45972
 Alpha  occ. eigenvalues --   -0.44559  -0.44093  -0.43291  -0.41125  -0.40647
 Alpha  occ. eigenvalues --   -0.40090  -0.39805  -0.39080  -0.38893  -0.38388
 Alpha  occ. eigenvalues --   -0.37817  -0.37460  -0.36445  -0.35031  -0.34910
 Alpha  occ. eigenvalues --   -0.33344  -0.32111  -0.30279  -0.29880  -0.29811
 Alpha  occ. eigenvalues --   -0.27326  -0.26990  -0.25609  -0.23139  -0.22728
 Alpha  occ. eigenvalues --   -0.18251
 Alpha virt. eigenvalues --   -0.02271  -0.01671   0.00165   0.01077   0.02571
 Alpha virt. eigenvalues --    0.03587   0.05063   0.05086   0.07351   0.08356
 Alpha virt. eigenvalues --    0.09626   0.09810   0.10510   0.11590   0.11722

 Mulliken charges:
               1
     1  Au  -0.162746
     2  S   -0.087052
     3  P    0.475183
     4  C   -0.443566
     5  C   -0.471746
     6  H    0.187115
     7  H    0.169224
     8  H    0.162772
     9  H    0.206073
    10  H    0.157132
    11  C   -0.456183
    12  C   -0.456270
    13  H    0.195340
    14  H    0.196378
    15  H    0.168112
    16  H    0.158958
    17  H    0.159190
    18  C   -0.445530
    19  C   -0.470882
    20  H    0.186998
    21  H    0.169452
    22  H    0.163333
    23  H    0.207487
    24  H    0.156249
    25  C    0.075246
    26  C   -0.138193
    27  N   -0.359285
    28  C   -0.105777
    29  H    0.156841
    30  C    0.002795
    31  C   -0.142390
    32  H    0.128574
    33  H    0.132328
    34  H    0.124838
 Sum of Mulliken charges =   0.00000

 Dipole moment (field-independent basis, Debye):
    X=              8.8636    Y=              5.3876    Z=              0.8917  Tot=             10.4108
 Quadrupole moment (field-independent basis, Debye-Ang):
   XX=           -110.9896   YY=           -124.1920   ZZ=           -122.7546
   XY=            -10.6122   XZ=             -3.3990   YZ=              0.0146

  Exact polarizability: 293.741 -12.423 180.611   5.723  10.504 143.117
 Approx polarizability: 389.104  -9.994 310.028  15.212  29.656 230.685

                      1                      2                      3
                      A                      A                      A
 Frequencies --     12.6107                21.2212                32.8915
 Red. masses --      4.7871                 4.4942                 4.9870
 Frc consts  --      0.0004                 0.0012                 0.0032
 IR Inten    --      0.4260                 1.4034                 0.4239

                      4                      5                      6
                      A                      A                      A
 Frequencies --     50.8707                63.3750                73.3397
 Red. masses --      5.7552                 2.3881                 3.2702
 Frc consts  --      0.0088                 0.0057                 0.0104
 IR Inten    --      1.0842                 0.0131                 0.2891

                      7                      8                      9
                      A                      A                      A
 Frequencies --     85.6177                96.8953               115.8981
 Red. masses --      3.4753                 2.4222                 3.7174
 Frc consts  --      0.0150                 0.0134                 0.0294
 IR Inten    --      0.0325                 0.2472                 0.1071

                     10                     11                     12
                      A                      A                      A
 Frequencies --    135.9496               144.9360               168.3183
 Red. masses --      2.8241                 2.6262                 5.4164
 Frc consts  --      0.0308                 0.0325                 0.0904
 IR Inten    --      0.3832                 0.2870                 1.4600

                     13                     14                     15
                      A                      A                      A
 Frequencies --    177.0285               197.4234               220.7203
 Red. masses --      1.9181                 1.4797                 2.6998
 Frc consts  --      0.0354                 0.0340                 0.0775
 IR Inten    --      0.6931                 0.2167                 6.1256

                     16                     17                     18
                      A                      A                      A
 Frequencies --    235.7573               250.0667               259.2000
 Red. masses --      4.1508                 1.4208                 1.4378
 Frc consts  --      0.1359                 0.0523                 0.0569
 IR Inten    --     11.3940                 0.3728                 0.0085

                     19                     20                     21
                      A                      A                      A
 Frequencies --    270.5731               314.2762               375.5996
 Red. masses --      1.7886                 2.8465                 3.7264
 Frc consts  --      0.0771                 0.1656                 0.3097
 IR Inten    --      0.4280                 0.9107                 4.1214

                     22                     23                     24
                      A                      A                      A
 Frequencies --    389.7878               415.4455               435.1446
 Red. masses --      9.0564                 3.5677                 4.3632
 Frc consts  --      0.8107                 0.3628                 0.4868
 IR Inten    --      0.5361                 3.5329                19.1211

                     25                     26                     27
                      A                      A                      A
 Frequencies --    437.1640               492.3035               617.4702
 Red. masses --      8.3087                 3.2133                 3.4114
 Frc consts  --      0.9356                 0.4588                 0.7663
 IR Inten    --      2.4482                 2.6219                11.7113

                     28                     29                     30
                      A                      A                      A
 Frequencies --    628.8900               672.8510               697.2791
 Red. masses --      7.4006                 2.5559                 3.2639
 Frc consts  --      1.7245                 0.6818                 0.9350
 IR Inten    --      2.5017                 3.1640                10.1011

                     31                     32                     33
                      A                      A                      A
 Frequencies --    733.0456               749.4218               750.3035
 Red. masses --      6.7058                 2.6080                 1.5792
 Frc consts  --      2.1231                 0.8630                 0.5238
 IR Inten    --     41.1474                15.4816                20.6374

                     34                     35                     36
                      A                      A                      A
 Frequencies --    770.6275               772.5473               787.9845
 Red. masses --      1.5254                 1.2965                 1.2894
 Frc consts  --      0.5337                 0.4559                 0.4717
 IR Inten    --     34.6525                11.3862                49.1112

                     37                     38                     39
                      A                      A                      A
 Frequencies --    884.5204               969.2870               992.0840
 Red. masses --      1.3217                 1.3882                 1.2975
 Frc consts  --      0.6092                 0.7685                 0.7524
 IR Inten    --      0.6369                 0.1030                 0.1355

                     40                     41                     42
                      A                      A                      A
 Frequencies --    993.7145               996.8090               997.7281
 Red. masses --      1.6994                 1.6510                 5.6040
 Frc consts  --      0.9887                 0.9666                 3.2868
 IR Inten    --      0.1480                 0.2721                 9.9982

                     43                     44                     45
                      A                      A                      A
 Frequencies --    998.1445              1009.2638              1022.4940
 Red. masses --      1.6825                 1.4383                 1.3821
 Frc consts  --      0.9876                 0.8632                 0.8513
 IR Inten    --      0.9336                 7.1460                 2.0991

                     46                     47                     48
                      A                      A                      A
 Frequencies --   1043.3396              1071.4625              1072.9887
 Red. masses --      1.5915                 1.7010                 2.5132
 Frc consts  --      1.0207                 1.1505                 1.7048
 IR Inten    --      6.6654                71.2232                 8.7942

                     49                     50                     51
                      A                      A                      A
 Frequencies --   1078.0633              1084.0487              1113.9596
 Red. masses --      1.7495                 1.7863                 1.7285
 Frc consts  --      1.1980                 1.2368                 1.2638
 IR Inten    --     22.4476                12.1347                16.0156

                     52                     53                     54
                      A                      A                      A
 Frequencies --   1147.2983              1183.5166              1279.7652
 Red. masses --      2.9507                 1.1233                 1.2343
 Frc consts  --      2.2884                 0.9270                 1.1911
 IR Inten    --    140.5414                 4.9079                 1.8884

                     55                     56                     57
                      A                      A                      A
 Frequencies --   1283.3858              1290.8598              1291.7490
 Red. masses --      1.2351                 1.2321                 3.7930
 Frc consts  --      1.1986                 1.2096                 3.7290
 IR Inten    --      0.7499                 5.6621                 0.7368

                     58                     59                     60
                      A                      A                      A
 Frequencies --   1306.4120              1310.5926              1321.3413
 Red. masses --      1.3838                 1.3848                 1.3828
 Frc consts  --      1.3915                 1.4014                 1.4225
 IR Inten    --      2.3271                10.9849                 0.4198

                     61                     62                     63
                      A                      A                      A
 Frequencies --   1325.8990              1443.3829              1446.2520
 Red. masses --      1.8015                 1.2068                 1.2058
 Frc consts  --      1.8660                 1.4813                 1.4860
 IR Inten    --      4.2311                 1.1352                 0.5223

                     64                     65                     66
                      A                      A                      A
 Frequencies --   1446.4851              1458.0626              1489.6475
 Red. masses --      1.2005                 2.0147                 1.0796
 Frc consts  --      1.4799                 2.5236                 1.4115
 IR Inten    --      3.8983                99.8227                 3.9762

                     67                     68                     69
                      A                      A                      A
 Frequencies --   1491.2984              1495.6469              1496.0387
 Red. masses --      1.0832                 1.7772                 1.1730
 Frc consts  --      1.4193                 2.3424                 1.5468
 IR Inten    --      5.1481                76.5120                 8.6553

                     70                     71                     72
                      A                      A                      A
 Frequencies --   1529.1884              1530.1950              1531.5031
 Red. masses --      1.0451                 1.0450                 1.0405
 Frc consts  --      1.4399                 1.4416                 1.4379
 IR Inten    --      7.3647                 7.6469                 4.5175

                     73                     74                     75
                      A                      A                      A
 Frequencies --   1532.3139              1534.9555              1536.2953
 Red. masses --      1.0390                 1.0460                 1.0422
 Frc consts  --      1.4374                 1.4520                 1.4493
 IR Inten    --      4.7634                 2.5491                 5.4998

                     76                     77                     78
                      A                      A                      A
 Frequencies --   1609.4178              1633.8117              3051.3022
 Red. masses --      5.3608                 5.1181                 1.0590
 Frc consts  --      8.1813                 8.0494                 5.8090
 IR Inten    --     34.5359               133.7011                 4.1112

                     79                     80                     81
                      A                      A                      A
 Frequencies --   3052.5800              3057.6073              3058.0294
 Red. masses --      1.0574                 1.0355                 1.0359
 Frc consts  --      5.8053                 5.7040                 5.7078
 IR Inten    --      8.1771                20.6508                20.3080

                     82                     83                     84
                      A                      A                      A
 Frequencies --   3060.3178              3064.5913              3094.9568
 Red. masses --      1.0380                 1.0605                 1.1036
 Frc consts  --      5.7275                 5.8681                 6.2284
 IR Inten    --     37.4549                 5.5460                 1.1918

                     85                     86                     87
                      A                      A                      A
 Frequencies --   3097.7643              3101.7518              3122.5128
 Red. masses --      1.1028                 1.1028                 1.1017
 Frc consts  --      6.2351                 6.2510                 6.3290
 IR Inten    --      8.7645                 0.1765                22.3691

                     88                     89                     90
                      A                      A                      A
 Frequencies --   3122.9775              3124.3238              3131.5289
 Red. masses --      1.1025                 1.1022                 1.1034
 Frc consts  --      6.3352                 6.3392                 6.3750
 IR Inten    --     11.7006                30.0946                21.1729

                     91                     92                     93
                      A                      A                      A
 Frequencies --   3133.9187              3134.9370              3164.1842
 Red. masses --      1.1032                 1.1031                 1.0887
 Frc consts  --      6.3837                 6.3875                 6.4219
 IR Inten    --     30.8272                19.6740                46.8082

                     94                     95                     96
                      A                      A                      A
 Frequencies --   3182.9017              3210.8665              3216.5087
 Red. masses --      1.0880                 1.0922                 1.0966
 Frc consts  --      6.4941                 6.6345                 6.6846
 IR Inten    --     15.0857                37.7813                 8.5533

 - Thermochemistry -
 -------------------
 Temperature   298.150 Kelvin.  Pressure   1.00000 Atm.
 Atom     1 has atomic number 79 and mass 196.96660

 Molecular mass:   425.06418 amu.
 Principal axes and moments of inertia in atomic units:
                           1         2         3
     Eigenvalues --  2438.74608********************
           X            1.00000  -0.00215   0.00128
           Y            0.00218   0.99968  -0.02533
           Z           -0.00123   0.02533   0.99968
 This molecule is an asymmetric top.
 Rotational symmetry number  1.
 Warning -- assumption of classical behavior for rotation
           may cause significant error
 Rotational temperatures (Kelvin)      0.03552     0.00836     0.00777
 Rotational constants (GHZ):           0.74003     0.17411     0.16185
 Zero-point vibrational energy     742340.4 (Joules/Mol)
                                  177.42360 (Kcal/Mol)
 Warning -- explicit consideration of  27 degrees of freedom as
           vibrations may cause significant error
 Vibrational temperatures:     18.14    30.53    47.32    73.19    91.18
          (Kelvin)            105.52   123.18   139.41   166.75   195.60
                              208.53   242.17   254.70   284.05   317.57
                              339.20   359.79   372.93   389.29   452.17
                              540.40   560.82   597.73   626.08   628.98
                              708.31   888.40   904.83   968.08  1003.23
                             1054.69  1078.25  1079.52  1108.76  1111.52
                             1133.73  1272.63  1394.59  1427.39  1429.73
                             1434.18  1435.51  1436.11  1452.10  1471.14
                             1501.13  1541.59  1543.79  1551.09  1559.70
                             1602.74  1650.70  1702.81  1841.29  1846.50
                             1857.26  1858.54  1879.63  1885.65  1901.11
                             1907.67  2076.70  2080.83  2081.17  2097.82
                             2143.27  2145.64  2151.90  2152.46  2200.16
                             2201.61  2203.49  2204.66  2208.46  2210.38
                             2315.59  2350.69  4390.14  4391.98  4399.21
                             4399.82  4403.11  4409.26  4452.95  4456.99
                             4462.72  4492.59  4493.26  4495.20  4505.57
                             4509.00  4510.47  4552.55  4579.48  4619.72
                             4627.83

 Zero-point correction=                           0.282743 (Hartree/Particle)
 Thermal correction to Energy=                    0.302376
 Thermal correction to Enthalpy=                  0.303320
 Thermal correction to Gibbs Free Energy=         0.230089
 Sum of electronic and zero-point Energies=          -1360.171519
 Sum of electronic and thermal Energies=             -1360.151886
 Sum of electronic and thermal Enthalpies=           -1360.150942
 Sum of electronic and thermal Free Energies=        -1360.224173

                     E (Thermal)             CV                S
                      KCal/Mol        Cal/Mol-Kelvin    Cal/Mol-Kelvin
 Total                  189.744             68.244            154.127
 Electronic               0.000              0.000              0.000
 Translational            0.889              2.981             44.031
 Rotational               0.889              2.981             33.999
 Vibrational            187.966             62.282             76.096
 Vibration     1          0.593              1.987              7.550
 Vibration     2          0.593              1.985              6.517
 Vibration     3          0.594              1.983              5.647
 Vibration     4          0.595              1.977              4.783
 Vibration     5          0.597              1.972              4.349
 Vibration     6          0.599              1.967              4.062
 Vibration     7          0.601              1.959              3.758
 Vibration     8          0.603              1.951              3.516
 Vibration     9          0.608              1.936              3.168
 Vibration    10          0.614              1.917              2.860
 Vibration    11          0.616              1.908              2.738
 Vibration    12          0.625              1.881              2.454
 Vibration    13          0.628              1.871              2.360
 Vibration    14          0.637              1.843              2.157
 Vibration    15          0.647              1.810              1.953
 Vibration    16          0.655              1.786              1.835
 Vibration    17          0.663              1.763              1.730
 Vibration    18          0.668              1.747              1.667
 Vibration    19          0.674              1.727              1.593
 Vibration    20          0.702              1.646              1.340
 Vibration    21          0.746              1.522              1.057
 Vibration    22          0.758              1.492              1.001
 Vibration    23          0.779              1.437              0.908
 Vibration    24          0.796              1.394              0.842
 Vibration    25          0.797              1.389              0.836
 Vibration    26          0.848              1.267              0.678
 Vibration    27          0.977              0.995              0.421

 Optimization completed.
    -- Stationary point found.

 1\1\GINC-NEQC31\Freq\RB3LYP\Gen\C11H19Au1N1P1S1\GUEST2\02-May-2023\0\\
 #N Geom=AllCheck Guess=TCheck SCRF=Check GenChk RB3LYP/ChkBas Freq\\af
 \\0,1\Au,0.137672924,-0.575607784,-0.0399040776\S,-1.9428625226,-1.622
 3187635,-0.1352983671\P,2.2707978962,0.3243396079,-0.0315463992\C,2.81
 24428867,1.0334153298,1.5967732548\C,2.7952385825,0.0167164407,2.74614
 08041\H,2.1235334095,1.857462784,1.8157183563\H,3.8102259537,1.4741911
 148,1.4765622987\H,3.0637808853,0.5062102323,3.6884916819\H,1.80169175
 09,-0.4279693603,2.8658254201\H,3.5104307365,-0.7967459068,2.581402608

 Normal termination of Gaussian 09 at Tue May  2 07:51:39 2023.
