 Gaussian 09, Revision D.01,
 Gaussian 09:  EM64L-G09RevD.01 24-Apr-2013

 ----------------------------------------
 # opt freq=noraman b3lyp/gen pseudo=read
 ----------------------------------------

 --
 af
 --
 Symbolic Z-matrix:
 Charge =  0 Multiplicity = 1

 SCF Done:  E(RB3LYP) =  -1360.45513426     A.U. after   15 cycles
 SCF Done:  E(RB3LYP) =  -1360.45485627     A.U. after   12 cycles
 SCF Done:  E(RB3LYP) =  -1360.45584756     A.U. after    9 cycles
 SCF Done:  E(RB3LYP) =  -1360.45645945     A.U. after   11 cycles
 SCF Done:  E(RB3LYP) =  -1360.45630171     A.U. after   11 cycles
 SCF Done:  E(RB3LYP) =  -1360.45631462     A.U. after   11 cycles
 SCF Done:  E(RB3LYP) =  -1360.45674967     A.U. after   11 cycles
 SCF Done:  E(RB3LYP) =  -1360.45675997     A.U. after   10 cycles
 SCF Done:  E(RB3LYP) =  -1360.45676497     A.U. after    9 cycles
 SCF Done:  E(RB3LYP) =  -1360.45677988     A.U. after   11 cycles
 SCF Done:  E(RB3LYP) =  -1360.45677079     A.U. after   13 cycles
 SCF Done:  E(RB3LYP) =  -1360.45687365     A.U. after   13 cycles
 SCF Done:  E(RB3LYP) =  -1360.45686977     A.U. after   10 cycles
 SCF Done:  E(RB3LYP) =  -1360.45688070     A.U. after   11 cycles
 SCF Done:  E(RB3LYP) =  -1360.45688483     A.U. after   10 cycles
 SCF Done:  E(RB3LYP) =  -1360.45688479     A.U. after   10 cycles
 SCF Done:  E(RB3LYP) =  -1360.45688432     A.U. after    9 cycles
 SCF Done:  E(RB3LYP) =  -1360.45688466     A.U. after    8 cycles
 SCF Done:  E(RB3LYP) =  -1360.45688464     A.U. after    7 cycles
 Optimization completed.
    -- Stationary point found.

 1\1\GINC-NEQC31\FOpt\RB3LYP\Gen\C11H19Au1N1P1S1\GUEST2\02-May-2023\0\\
 # opt freq=noraman b3lyp/gen pseudo=read\\af\\0,1\Au,0.1447565681,-0.6
 178590164,0.0262890883\S,-1.9438106208,-1.6644806139,0.0004627581\P,2.
 2659885885,0.3047865833,-0.0201312905\C,2.8115241761,1.0702515605,1.58
 0311892\C,2.8196435053,0.0895975069,2.7606706841\H,2.1134400212,1.8912
 6591,1.7804635844\H,3.801851879,1.5203901678,1.4359426735\H,3.09285650
 38,0.6118231981,3.6838135437\H,1.8327891217,-0.3621572821,2.9064088597
 \H,3.5426657801,-0.7202721045,2.6133666862\C,3.5648700735,-0.951528230

 Normal termination of Gaussian 09 at Tue May  2 08:06:00 2023.

 ------------------------------------------------------------------
 #N Geom=AllCheck Guess=TCheck SCRF=Check GenChk RB3LYP/ChkBas Freq
 ------------------------------------------------------------------

 Structure from the checkpoint file:  "/home/scr/guest2/Gau-22367.chk"
 --
 af
 --
 Charge =  0 Multiplicity = 1

                         Standard orientation:
 ---------------------------------------------------------------------
 Center     Atomic      Atomic             Coordinates (Angstroms)
 Number     Number       Type             X           Y           Z
 ---------------------------------------------------------------------
      1         79           0        0.168006   -0.571115   -0.084425
      2         16           0       -1.910907   -1.636291   -0.125831
      3         15           0        2.280146    0.372657   -0.119266
      4          6           0        2.831508    1.094243    1.499462
      5          6           0        2.858281    0.078261    2.649270
      6          1           0        2.127485    1.902110    1.730004
      7          1           0        3.816417    1.557967    1.361151
      8          1           0        3.134110    0.574741    3.585744
      9          1           0        1.876871   -0.387087    2.788873
     10          1           0        3.587565   -0.719837    2.471694
     11          6           0        3.587066   -0.857472   -0.601080
     12          6           0        5.038701   -0.360912   -0.620936
     13          1           0        3.291228   -1.231089   -1.588892
     14          1           0        3.477436   -1.705769    0.084318
     15          1           0        5.705558   -1.173240   -0.930341
     16          1           0        5.180309    0.465327   -1.325281
     17          1           0        5.369706   -0.024611    0.367212
     18          6           0        2.463110    1.764224   -1.333541
     19          6           0        1.412714    2.871907   -1.168821
     20          1           0        2.378916    1.312651   -2.329563
     21          1           0        3.476127    2.176793   -1.248967
     22          1           0        1.551796    3.639457   -1.937713
     23          1           0        0.397952    2.473028   -1.268307
     24          1           0        1.488630    3.365605   -0.193959
     25          6           0       -3.139588   -0.357205    0.030649
     26          6           0       -2.951830    0.857713    0.710506
     27          6           0       -4.006626    1.764500    0.789988
     28          1           0       -1.999130    1.085733    1.179137
     29          6           0       -5.399178    0.394793   -0.370200
     30          1           0       -3.864607    2.710506    1.312818
     31          1           0       -6.388709    0.227918   -0.795190
     32          6           0       -4.413925   -0.579117   -0.517769
     33          1           0       -4.628055   -1.497151   -1.056522
     34          7           0       -5.223024    1.561456    0.265783
 ---------------------------------------------------------------------

 SCF Done:  E(RB3LYP) =  -1360.45688464     A.U. after    1 cycles

 The electronic state is 1-A.
 Alpha  occ. eigenvalues --  -88.81925 -77.12686 -14.29864 -10.22072 -10.21958
 Alpha  occ. eigenvalues --  -10.21954 -10.20670 -10.20593 -10.19985 -10.19866
 Alpha  occ. eigenvalues --  -10.19384 -10.19263 -10.16794 -10.16609  -7.89542
 Alpha  occ. eigenvalues --   -6.60669  -5.85931  -5.85467  -5.85125  -4.76819
 Alpha  occ. eigenvalues --   -4.76805  -4.76576  -4.16911  -2.31530  -2.29499
 Alpha  occ. eigenvalues --   -2.29346  -0.91284  -0.82902  -0.79373  -0.78768
 Alpha  occ. eigenvalues --   -0.78583  -0.73502  -0.69737  -0.67876  -0.65620
 Alpha  occ. eigenvalues --   -0.64636  -0.60491  -0.57770  -0.56777  -0.49849
 Alpha  occ. eigenvalues --   -0.48417  -0.48090  -0.47793  -0.46484  -0.45875
 Alpha  occ. eigenvalues --   -0.44850  -0.44531  -0.43701  -0.41401  -0.40723
 Alpha  occ. eigenvalues --   -0.40373  -0.40337  -0.39446  -0.39253  -0.38478
 Alpha  occ. eigenvalues --   -0.37741  -0.37376  -0.35698  -0.35317  -0.34332
 Alpha  occ. eigenvalues --   -0.34081  -0.32690  -0.30834  -0.30429  -0.30394
 Alpha  occ. eigenvalues --   -0.28466  -0.27724  -0.24013  -0.23760  -0.22989
 Alpha  occ. eigenvalues --   -0.19171
 Alpha virt. eigenvalues --   -0.02662  -0.02130   0.00214   0.01202   0.02158
 Alpha virt. eigenvalues --    0.03174   0.04723   0.04818   0.06920   0.07844
 Alpha virt. eigenvalues --    0.09271   0.09501   0.10171   0.10942   0.11481

 Mulliken charges:
               1
     1  Au  -0.121987
     2  S   -0.127768
     3  P    0.475794
     4  C   -0.444379
     5  C   -0.472080
     6  H    0.189583
     7  H    0.170787
     8  H    0.164663
     9  H    0.205702
    10  H    0.157336
    11  C   -0.456332
    12  C   -0.456588
    13  H    0.195279
    14  H    0.196599
    15  H    0.168969
    16  H    0.159785
    17  H    0.160066
    18  C   -0.446153
    19  C   -0.471483
    20  H    0.187304
    21  H    0.170946
    22  H    0.165072
    23  H    0.208609
    24  H    0.157984
    25  C   -0.026184
    26  C   -0.152130
    27  C    0.003420
    28  H    0.150607
    29  C    0.006087
    30  H    0.125144
    31  H    0.129928
    32  C   -0.156827
    33  H    0.141155
    34  N   -0.358906
 Sum of Mulliken charges =   0.00000

 Dipole moment (field-independent basis, Debye):
    X=             10.6304    Y=              2.3152    Z=             -0.2420  Tot=             10.8823
 Quadrupole moment (field-independent basis, Debye-Ang):
   XX=           -126.0299   YY=           -126.4387   ZZ=           -121.2939
   XY=              7.9519   XZ=              2.4586   YZ=              0.9344

  Exact polarizability: 285.650  -6.992 179.686   8.599  12.013 145.467
 Approx polarizability: 381.340 -11.102 309.288  17.523  31.213 234.397

                      1                      2                      3
                      A                      A                      A
 Frequencies --     16.2430                21.2650                32.5295
 Red. masses --      4.5802                 4.4984                 4.7600
 Frc consts  --      0.0007                 0.0012                 0.0030
 IR Inten    --      0.8049                 0.0987                 0.1281

                      4                      5                      6
                      A                      A                      A
 Frequencies --     51.6857                64.0716                72.3388
 Red. masses --      5.8701                 2.4036                 3.6181
 Frc consts  --      0.0092                 0.0058                 0.0112
 IR Inten    --      0.5901                 0.0200                 0.3858

                      7                      8                      9
                      A                      A                      A
 Frequencies --     84.4243                95.5572               115.3174
 Red. masses --      3.2327                 2.3994                 3.7478
 Frc consts  --      0.0136                 0.0129                 0.0294
 IR Inten    --      0.3221                 0.6353                 0.1492

                     10                     11                     12
                      A                      A                      A
 Frequencies --    136.5691               144.6232               177.3749
 Red. masses --      2.9916                 2.5429                 2.0757
 Frc consts  --      0.0329                 0.0313                 0.0385
 IR Inten    --      0.4682                 0.1818                 0.4386

                     13                     14                     15
                      A                      A                      A
 Frequencies --    180.4448               195.7978               221.8834
 Red. masses --      5.6115                 1.4652                 2.7417
 Frc consts  --      0.1077                 0.0331                 0.0795
 IR Inten    --      2.8509                 0.1821                 2.7117

                     16                     17                     18
                      A                      A                      A
 Frequencies --    236.0968               249.0855               257.5889
 Red. masses --      3.7698                 1.4268                 1.4635
 Frc consts  --      0.1238                 0.0522                 0.0572
 IR Inten    --      3.9827                 0.2243                 0.0203

                     19                     20                     21
                      A                      A                      A
 Frequencies --    271.4122               314.4299               375.1674
 Red. masses --      1.7394                 2.8514                 4.1548
 Frc consts  --      0.0755                 0.1661                 0.3445
 IR Inten    --      0.4207                 0.8573                 9.3144

                     22                     23                     24
                      A                      A                      A
 Frequencies --    384.8386               394.1672               423.6912
 Red. masses --      7.5731                 2.6571                15.1514
 Frc consts  --      0.6608                 0.2432                 1.6025
 IR Inten    --      3.7136                 0.4807                 5.7562

                     25                     26                     27
                      A                      A                      A
 Frequencies --    435.9110               510.6213               617.6770
 Red. masses --      3.4947                 3.6101                 3.4063
 Frc consts  --      0.3913                 0.5546                 0.7657
 IR Inten    --      8.5060                12.5779                11.2645

                     28                     29                     30
                      A                      A                      A
 Frequencies --    673.3725               682.5413               697.8067
 Red. masses --      2.5354                 6.9937                 3.2563
 Frc consts  --      0.6773                 1.9196                 0.9342
 IR Inten    --      2.8699                 0.7041                10.5651

                     31                     32                     33
                      A                      A                      A
 Frequencies --    707.6206               746.0105               750.4471
 Red. masses --      7.5023                 4.2034                 1.4974
 Frc consts  --      2.2133                 1.3783                 0.4969
 IR Inten    --     63.4985                 1.2988                34.2541

                     34                     35                     36
                      A                      A                      A
 Frequencies --    772.0943               787.7412               822.2930
 Red. masses --      1.2902                 1.2927                 1.3553
 Frc consts  --      0.4532                 0.4726                 0.5400
 IR Inten    --     11.1360                47.8415                22.6350

                     37                     38                     39
                      A                      A                      A
 Frequencies --    875.9274               971.9915               989.1641
 Red. masses --      1.2487                 1.2987                 1.4378
 Frc consts  --      0.5645                 0.7229                 0.8289
 IR Inten    --      0.5580                 0.4463                 0.0653

                     40                     41                     42
                      A                      A                      A
 Frequencies --    993.5728               996.4685               997.9364
 Red. masses --      1.7117                 1.6457                 1.6414
 Frc consts  --      0.9956                 0.9628                 0.9631
 IR Inten    --      0.1942                 0.1800                 0.8693

                     43                     44                     45
                      A                      A                      A
 Frequencies --   1008.3210              1009.2036              1022.5098
 Red. masses --      7.5620                 1.4414                 1.3804
 Frc consts  --      4.5299                 0.8650                 0.8503
 IR Inten    --      8.5297                 6.8532                 2.1013

                     46                     47                     48
                      A                      A                      A
 Frequencies --   1043.4595              1071.7056              1077.8923
 Red. masses --      1.5904                 1.5903                 1.7393
 Frc consts  --      1.0202                 1.0762                 1.1907
 IR Inten    --      6.3128                66.2626                21.7440

                     49                     50                     51
                      A                      A                      A
 Frequencies --   1083.9616              1096.1399              1115.3882
 Red. masses --      1.7801                 2.7157                 1.5765
 Frc consts  --      1.2323                 1.9225                 1.1556
 IR Inten    --     11.8332                 9.1019                 0.6721

                     52                     53                     54
                      A                      A                      A
 Frequencies --   1125.9032              1256.5472              1280.0385
 Red. masses --      2.7303                 1.2675                 1.2330
 Frc consts  --      2.0392                 1.1791                 1.1904
 IR Inten    --     36.6419                 7.8825                 1.7601

                     55                     56                     57
                      A                      A                      A
 Frequencies --   1282.8230              1287.2978              1290.7098
 Red. masses --      1.2354                 6.8483                 1.2025
 Frc consts  --      1.1979                 6.6864                 1.1803
 IR Inten    --      0.7562                 3.5171                 5.4731

                     58                     59                     60
                      A                      A                      A
 Frequencies --   1306.4576              1310.5275              1321.2516
 Red. masses --      1.3866                 1.3849                 1.3817
 Frc consts  --      1.3945                 1.4014                 1.4211
 IR Inten    --      2.0046                11.5826                 0.4443

                     61                     62                     63
                      A                      A                      A
 Frequencies --   1359.8188              1443.6060              1445.9525
 Red. masses --      1.4474                 1.2061                 1.2033
 Frc consts  --      1.5769                 1.4809                 1.4823
 IR Inten    --      1.1646                 1.0242                 3.0684

                     64                     65                     66
                      A                      A                      A
 Frequencies --   1447.2142              1453.5378              1489.1382
 Red. masses --      1.2021                 1.9445                 1.0798
 Frc consts  --      1.4834                 2.4205                 1.4107
 IR Inten    --      1.4852                17.7155                 4.1442

                     67                     68                     69
                      A                      A                      A
 Frequencies --   1491.1221              1495.1357              1522.8320
 Red. masses --      1.0824                 1.0850                 1.9902
 Frc consts  --      1.4179                 1.4290                 2.7193
 IR Inten    --      4.8333                 9.1624                45.3167

                     70                     71                     72
                      A                      A                      A
 Frequencies --   1528.7563              1530.5872              1531.3548
 Red. masses --      1.0453                 1.0469                 1.0404
 Frc consts  --      1.4394                 1.4450                 1.4374
 IR Inten    --      8.7649                 7.0656                 3.2312

                     73                     74                     75
                      A                      A                      A
 Frequencies --   1532.3520              1534.6336              1535.9224
 Red. masses --      1.0383                 1.0451                 1.0427
 Frc consts  --      1.4365                 1.4501                 1.4492
 IR Inten    --      6.5351                 2.6644                 5.4192

                     76                     77                     78
                      A                      A                      A
 Frequencies --   1588.4823              1628.2979              3051.8896
 Red. masses --      6.9788                 5.0072                 1.0587
 Frc consts  --     10.3751                 7.8220                 5.8096
 IR Inten    --     16.4800               206.6254                 4.6357

                     79                     80                     81
                      A                      A                      A
 Frequencies --   3053.3996              3058.0320              3059.3242
 Red. masses --      1.0576                 1.0356                 1.0358
 Frc consts  --      5.8096                 5.7061                 5.7119
 IR Inten    --      6.5718                19.9112                19.3717

                     82                     83                     84
                      A                      A                      A
 Frequencies --   3060.8031              3064.5624              3095.5928
 Red. masses --      1.0383                 1.0602                 1.1038
 Frc consts  --      5.7311                 5.8665                 6.2318
 IR Inten    --     35.2985                 6.0571                 1.6284

                     85                     86                     87
                      A                      A                      A
 Frequencies --   3098.6603              3101.9635              3123.2603
 Red. masses --      1.1027                 1.1028                 1.1017
 Frc consts  --      6.2379                 6.2521                 6.3316
 IR Inten    --      7.2653                 0.1997                21.8307

                     88                     89                     90
                      A                      A                      A
 Frequencies --   3124.4133              3125.4101              3131.7427
 Red. masses --      1.1027                 1.1022                 1.1034
 Frc consts  --      6.3421                 6.3433                 6.3761
 IR Inten    --      6.4584                33.3691                21.3560

                     91                     92                     93
                      A                      A                      A
 Frequencies --   3134.5356              3135.6448              3157.3793
 Red. masses --      1.1031                 1.1033                 1.0878
 Frc consts  --      6.3859                 6.3911                 6.3893
 IR Inten    --     29.6023                19.0896                39.5019

                     94                     95                     96
                      A                      A                      A
 Frequencies --   3163.9769              3202.9390              3211.8258
 Red. masses --      1.0896                 1.0925                 1.0931
 Frc consts  --      6.4264                 6.6037                 6.6439
 IR Inten    --     48.9766                15.7995                 9.6710

 - Thermochemistry -
 -------------------
 Temperature   298.150 Kelvin.  Pressure   1.00000 Atm.
 Atom     1 has atomic number 79 and mass 196.96660

 Molecular mass:   425.06418 amu.
 Principal axes and moments of inertia in atomic units:
                           1         2         3
     Eigenvalues --  2483.51532********************
           X            0.99997   0.00640   0.00355
           Y           -0.00633   0.99976  -0.02093
           Z           -0.00369   0.02091   0.99977
 This molecule is an asymmetric top.
 Rotational symmetry number  1.
 Warning -- assumption of classical behavior for rotation
           may cause significant error
 Rotational temperatures (Kelvin)      0.03488     0.00834     0.00773
 Rotational constants (GHZ):           0.72669     0.17368     0.16109
 Zero-point vibrational energy     743180.3 (Joules/Mol)
                                  177.62434 (Kcal/Mol)
 Warning -- explicit consideration of  27 degrees of freedom as
           vibrations may cause significant error
 Vibrational temperatures:     23.37    30.60    46.80    74.36    92.18
          (Kelvin)            104.08   121.47   137.49   165.92   196.49
                              208.08   255.20   259.62   281.71   319.24
                              339.69   358.38   370.61   390.50   452.39
                              539.78   553.70   567.12   609.60   627.18
                              734.67   888.70   968.83   982.02  1003.99
                             1018.11  1073.34  1079.72  1110.87  1133.38
                             1183.09  1260.26  1398.48  1423.18  1429.53
                             1433.69  1435.81  1450.75  1452.02  1471.16
                             1501.30  1541.94  1550.84  1559.58  1577.10
                             1604.79  1619.92  1807.89  1841.69  1845.69
                             1852.13  1857.04  1879.70  1885.55  1900.98
                             1956.47  2077.02  2080.40  2082.22  2091.31
                             2142.54  2145.39  2151.16  2191.01  2199.54
                             2202.17  2203.28  2204.71  2207.99  2209.85
                             2285.47  2342.75  4390.98  4393.16  4399.82
                             4401.68  4403.81  4409.22  4453.86  4458.28
                             4463.03  4493.67  4495.33  4496.76  4505.87
                             4509.89  4511.49  4542.76  4552.25  4608.31
                             4621.10

 Zero-point correction=                           0.283062 (Hartree/Particle)
 Thermal correction to Energy=                    0.302663
 Thermal correction to Enthalpy=                  0.303607
 Thermal correction to Gibbs Free Energy=         0.230639
 Sum of electronic and zero-point Energies=          -1360.173822
 Sum of electronic and thermal Energies=             -1360.154222
 Sum of electronic and thermal Enthalpies=           -1360.153278
 Sum of electronic and thermal Free Energies=        -1360.226245

                     E (Thermal)             CV                S
                      KCal/Mol        Cal/Mol-Kelvin    Cal/Mol-Kelvin
 Total                  189.924             68.074            153.573
 Electronic               0.000              0.000              0.000
 Translational            0.889              2.981             44.031
 Rotational               0.889              2.981             34.024
 Vibrational            188.146             62.112             75.517
 Vibration     1          0.593              1.986              7.047
 Vibration     2          0.593              1.985              6.512
 Vibration     3          0.594              1.983              5.669
 Vibration     4          0.596              1.977              4.752
 Vibration     5          0.597              1.971              4.328
 Vibration     6          0.598              1.967              4.089
 Vibration     7          0.601              1.960              3.785
 Vibration     8          0.603              1.952              3.543
 Vibration     9          0.608              1.937              3.177
 Vibration    10          0.614              1.917              2.851
 Vibration    11          0.616              1.908              2.742
 Vibration    12          0.628              1.870              2.356
 Vibration    13          0.629              1.866              2.324
 Vibration    14          0.636              1.846              2.172
 Vibration    15          0.648              1.808              1.944
 Vibration    16          0.655              1.786              1.832
 Vibration    17          0.662              1.764              1.737
 Vibration    18          0.667              1.750              1.678
 Vibration    19          0.675              1.726              1.587
 Vibration    20          0.702              1.646              1.339
 Vibration    21          0.746              1.523              1.059
 Vibration    22          0.754              1.503              1.020
 Vibration    23          0.761              1.483              0.984
 Vibration    24          0.786              1.419              0.880
 Vibration    25          0.796              1.392              0.840
 Vibration    26          0.866              1.226              0.632
 Vibration    27          0.977              0.995              0.420

 Optimization completed.
    -- Stationary point found.

 1\1\GINC-NEQC31\Freq\RB3LYP\Gen\C11H19Au1N1P1S1\GUEST2\02-May-2023\0\\
 #N Geom=AllCheck Guess=TCheck SCRF=Check GenChk RB3LYP/ChkBas Freq\\af
 \\0,1\Au,0.1447565681,-0.6178590164,0.0262890883\S,-1.9438106208,-1.66
 44806139,0.0004627581\P,2.2659885885,0.3047865833,-0.0201312905\C,2.81
 15241761,1.0702515605,1.580311892\C,2.8196435053,0.0895975069,2.760670
 6841\H,2.1134400212,1.89126591,1.7804635844\H,3.801851879,1.5203901678
 ,1.4359426735\H,3.0928565038,0.6118231981,3.6838135437\H,1.8327891217,
 -0.3621572821,2.9064088597\H,3.5426657801,-0.7202721045,2.6133666862\C

 Normal termination of Gaussian 09 at Tue May  2 08:09:55 2023.
