 Gaussian 09, Revision D.01,
 Gaussian 09:  EM64L-G09RevD.01 24-Apr-2013

 ----------------------------------------
 # opt freq=noraman b3lyp/gen pseudo=read
 ----------------------------------------

 --
 af
 --
 Symbolic Z-matrix:
 Charge =  0 Multiplicity = 1

 SCF Done:  E(RB3LYP) =  -1682.42601487     A.U. after   14 cycles
 SCF Done:  E(RB3LYP) =  -1682.42816469     A.U. after   11 cycles
 SCF Done:  E(RB3LYP) =  -1682.42173879     A.U. after   13 cycles
 SCF Done:  E(RB3LYP) =  -1682.42836807     A.U. after   10 cycles
 SCF Done:  E(RB3LYP) =  -1682.42796939     A.U. after   11 cycles
 SCF Done:  E(RB3LYP) =  -1682.41969694     A.U. after   12 cycles
 SCF Done:  E(RB3LYP) =  -1682.42844819     A.U. after    9 cycles
 SCF Done:  E(RB3LYP) =  -1682.42852838     A.U. after   11 cycles
 SCF Done:  E(RB3LYP) =  -1682.42857582     A.U. after   10 cycles
 SCF Done:  E(RB3LYP) =  -1682.42858741     A.U. after   10 cycles
 SCF Done:  E(RB3LYP) =  -1682.42859392     A.U. after   11 cycles
 SCF Done:  E(RB3LYP) =  -1682.42859431     A.U. after    9 cycles
 SCF Done:  E(RB3LYP) =  -1682.42859595     A.U. after    8 cycles
 SCF Done:  E(RB3LYP) =  -1682.42859603     A.U. after    7 cycles
 Optimization completed.
    -- Stationary point found.
 Normal termination of Gaussian 09 at Tue May  2 07:06:44 2023.

 ------------------------------------------------------------------
 #N Geom=AllCheck Guess=TCheck SCRF=Check GenChk RB3LYP/ChkBas Freq
 ------------------------------------------------------------------

 Structure from the checkpoint file:  "/home/scr/guest2/Gau-13026.chk"
 --
 af
 --
 Charge =  0 Multiplicity = 1

                         Standard orientation:
 ---------------------------------------------------------------------
 Center     Atomic      Atomic             Coordinates (Angstroms)
 Number     Number       Type             X           Y           Z
 ---------------------------------------------------------------------
      1         79           0        0.116292   -0.588892   -0.021797
      2         16           0       -1.965983   -1.649917   -0.169399
      3         15           0        2.207534    0.381416    0.123668
      4          6           0        2.623695    1.052488    1.803729
      5          6           0        2.468943    0.027044    2.935588
      6          1           0        1.947129    1.899847    1.969413
      7          1           0        3.644965    1.452627    1.781293
      8          1           0        2.687459    0.496511    3.900846
      9          1           0        1.449025   -0.369233    2.972818
     10          1           0        3.155935   -0.817902    2.817167
     11          6           0        3.605412   -0.771697   -0.277473
     12          6           0        3.518169   -1.380151   -1.683600
     13          1           0        3.572735   -1.565600    0.477432
     14          1           0        4.553597   -0.237001   -0.139168
     15          1           0        4.337266   -2.090505   -1.839171
     16          1           0        2.573415   -1.915411   -1.824730
     17          1           0        3.591632   -0.615076   -2.464212
     18          6           0        2.392622    1.829805   -1.025348
     19          6           0        3.748986    2.546641   -1.033161
     20          1           0        1.586769    2.524011   -0.757908
     21          1           0        2.144133    1.457770   -2.025947
     22          1           0        3.728226    3.374326   -1.750732
     23          1           0        3.995488    2.968952   -0.053496
     24          1           0        4.564633    1.878199   -1.328992
     25          6           0       -3.136483   -0.331050   -0.067759
     26          6           0       -5.168463    0.690213    0.067624
     27          6           0       -4.273215    1.952380    0.178106
     28          1           0       -5.675571    0.668572   -0.908481
     29          1           0       -5.948309    0.702033    0.837582
     30          1           0       -4.637168    2.775798   -0.441222
     31          1           0       -4.187321    2.296874    1.213494
     32          7           0       -4.366914   -0.519240    0.192052
     33         16           0       -2.627374    1.390983   -0.411830
 ---------------------------------------------------------------------

 SCF Done:  E(RB3LYP) =  -1682.42859602     A.U. after    1 cycles

 The electronic state is 1-A.
 Alpha  occ. eigenvalues --  -88.84452 -88.81998 -77.12249 -14.29443 -10.24153
 Alpha  occ. eigenvalues --  -10.21612 -10.21539 -10.21532 -10.20269 -10.19855
 Alpha  occ. eigenvalues --  -10.19770 -10.19641 -10.19476  -7.92060  -7.89658
 Alpha  occ. eigenvalues --   -6.60233  -5.88461  -5.88124  -5.87488  -5.86055
 Alpha  occ. eigenvalues --   -5.85561  -5.85236  -4.76381  -4.76370  -4.76140
 Alpha  occ. eigenvalues --   -4.16396  -2.31037  -2.28972  -2.28835  -0.91736
 Alpha  occ. eigenvalues --   -0.82480  -0.78333  -0.78216  -0.76106  -0.73703
 Alpha  occ. eigenvalues --   -0.69309  -0.66264  -0.65202  -0.64262  -0.59160
 Alpha  occ. eigenvalues --   -0.56615  -0.49583  -0.48975  -0.47884  -0.47661
 Alpha  occ. eigenvalues --   -0.46331  -0.46102  -0.44512  -0.44250  -0.43155
 Alpha  occ. eigenvalues --   -0.41009  -0.40278  -0.39996  -0.39876  -0.39035
 Alpha  occ. eigenvalues --   -0.38830  -0.38158  -0.37535  -0.37330  -0.35295
 Alpha  occ. eigenvalues --   -0.35038  -0.34063  -0.33149  -0.32104  -0.31305
 Alpha  occ. eigenvalues --   -0.30526  -0.29858  -0.29620  -0.27139  -0.23914
 Alpha  occ. eigenvalues --   -0.23487  -0.21206  -0.19529
 Alpha virt. eigenvalues --   -0.02077  -0.01323   0.01088   0.03474   0.03596
 Alpha virt. eigenvalues --    0.04063   0.05127   0.05434   0.07619   0.08033
 Alpha virt. eigenvalues --    0.09166   0.09761   0.10030   0.10845   0.11559

 Mulliken charges:
               1
     1  Au  -0.149960
     2  S   -0.049432
     3  P    0.468425
     4  C   -0.447012
     5  C   -0.469673
     6  H    0.187948
     7  H    0.169766
     8  H    0.162287
     9  H    0.208548
    10  H    0.157631
    11  C   -0.445785
    12  C   -0.471579
    13  H    0.191936
    14  H    0.169854
    15  H    0.163518
    16  H    0.206041
    17  H    0.157782
    18  C   -0.455717
    19  C   -0.456174
    20  H    0.198002
    21  H    0.196229
    22  H    0.167987
    23  H    0.158810
    24  H    0.158235
    25  C   -0.044975
    26  C   -0.148299
    27  C   -0.450301
    28  H    0.155691
    29  H    0.152885
    30  H    0.171524
    31  H    0.177219
    32  N   -0.323457
    33  S    0.132045
 Sum of Mulliken charges =   0.00000

 Dipole moment (field-independent basis, Debye):
    X=              8.2578    Y=              4.8263    Z=              0.7301  Tot=              9.5925
 Quadrupole moment (field-independent basis, Debye-Ang):
   XX=           -111.9910   YY=           -126.2109   ZZ=           -124.1179
   XY=            -11.0235   XZ=             -0.6402   YZ=              1.1647

  Exact polarizability: 271.577  -2.468 180.337  -4.490  -0.411 152.337
 Approx polarizability: 372.733   7.302 300.048 -10.596  -3.121 238.877

                      1                      2                      3
                      A                      A                      A
 Frequencies --     17.7680                21.2022                28.0312
 Red. masses --      5.6512                 5.0367                 5.4949
 Frc consts  --      0.0011                 0.0013                 0.0025
 IR Inten    --      0.4703                 0.5375                 0.3806

                      4                      5                      6
                      A                      A                      A
 Frequencies --     50.9714                55.6652                66.1810
 Red. masses --      5.5528                 2.5288                 3.2915
 Frc consts  --      0.0085                 0.0046                 0.0085
 IR Inten    --      1.5146                 0.0872                 0.6208

                      7                      8                      9
                      A                      A                      A
 Frequencies --     78.8322                89.6863               113.6801
 Red. masses --      3.2113                 2.3888                 3.9414
 Frc consts  --      0.0118                 0.0113                 0.0300
 IR Inten    --      0.2490                 0.0009                 0.0473

                     10                     11                     12
                      A                      A                      A
 Frequencies --    131.9490               135.8415               144.6276
 Red. masses --      2.9320                 2.7326                 2.7143
 Frc consts  --      0.0301                 0.0297                 0.0335
 IR Inten    --      0.4779                 1.1211                 0.6114

                     13                     14                     15
                      A                      A                      A
 Frequencies --    175.6103               192.4104               208.4691
 Red. masses --      2.0056                 1.5425                 4.0561
 Frc consts  --      0.0364                 0.0336                 0.1039
 IR Inten    --      0.5120                 0.5167                10.8326

                     16                     17                     18
                      A                      A                      A
 Frequencies --    221.4402               230.8102               248.9471
 Red. masses --      2.9379                 2.5853                 1.4379
 Frc consts  --      0.0849                 0.0811                 0.0525
 IR Inten    --      5.7428                 4.4089                 0.4544

                     19                     20                     21
                      A                      A                      A
 Frequencies --    256.2869               266.6533               315.1791
 Red. masses --      1.3880                 1.7623                 2.8959
 Frc consts  --      0.0537                 0.0738                 0.1695
 IR Inten    --      0.1599                 0.4329                 0.7794

                     22                     23                     24
                      A                      A                      A
 Frequencies --    356.6828               379.0031               426.1448
 Red. masses --     21.9800                 3.5437                11.4634
 Frc consts  --      1.6476                 0.2999                 1.2265
 IR Inten    --      1.5989                 3.6412                 6.6204

                     25                     26                     27
                      A                      A                      A
 Frequencies --    433.8106               543.9283               561.1671
 Red. masses --      3.5057                 9.1495                 7.3431
 Frc consts  --      0.3887                 1.5949                 1.3624
 IR Inten    --      7.4556                 2.0667                 4.6679

                     28                     29                     30
                      A                      A                      A
 Frequencies --    613.5177               617.1304               673.8472
 Red. masses --      7.1646                 3.3937                 2.5387
 Frc consts  --      1.5889                 0.7615                 0.6792
 IR Inten    --     15.2744                10.2814                 3.1960

                     31                     32                     33
                      A                      A                      A
 Frequencies --    696.3249               713.3351               748.5583
 Red. masses --      3.1683                 3.0289                 1.4991
 Frc consts  --      0.9051                 0.9081                 0.4949
 IR Inten    --     11.0399                 1.4734                31.3381

                     34                     35                     36
                      A                      A                      A
 Frequencies --    770.1722               785.8335               863.2516
 Red. masses --      1.2990                 1.2990                 1.7395
 Frc consts  --      0.4540                 0.4726                 0.7637
 IR Inten    --     14.9851                49.7816                 1.9132

                     37                     38                     39
                      A                      A                      A
 Frequencies --    919.6973               954.1083               993.6575
 Red. masses --      4.3270                 3.5936                 1.7070
 Frc consts  --      2.1564                 1.9274                 0.9930
 IR Inten    --     73.1332                86.5770                 0.2819

                     40                     41                     42
                      A                      A                      A
 Frequencies --    996.2380               997.7586              1009.1105
 Red. masses --      1.6197                 1.6337                 1.4431
 Frc consts  --      0.9471                 0.9582                 0.8658
 IR Inten    --      0.3494                 0.3677                 7.6264

                     43                     44                     45
                      A                      A                      A
 Frequencies --   1021.3881              1024.5505              1042.5906
 Red. masses --      1.4134                 2.1638                 1.6253
 Frc consts  --      0.8687                 1.3382                 1.0409
 IR Inten    --      2.2697                18.3302                 5.6137

                     46                     47                     48
                      A                      A                      A
 Frequencies --   1042.9936              1071.6248              1077.7251
 Red. masses --      2.5300                 1.6042                 1.7165
 Frc consts  --      1.6215                 1.0854                 1.1747
 IR Inten    --      5.1185                60.0445                12.5283

                     49                     50                     51
                      A                      A                      A
 Frequencies --   1084.0720              1171.8804              1230.8490
 Red. masses --      1.7779                 1.2766                 1.1790
 Frc consts  --      1.2311                 1.0329                 1.0524
 IR Inten    --     12.1237                 1.7220                 4.7076

                     52                     53                     54
                      A                      A                      A
 Frequencies --   1279.7819              1282.6329              1290.9893
 Red. masses --      1.2348                 1.2293                 1.1968
 Frc consts  --      1.1916                 1.1916                 1.1752
 IR Inten    --      1.9036                 0.4896                 6.0654

                     55                     56                     57
                      A                      A                      A
 Frequencies --   1305.0240              1307.3785              1310.8616
 Red. masses --      1.2020                 1.3891                 1.3831
 Frc consts  --      1.2061                 1.3989                 1.4003
 IR Inten    --      3.8173                 2.0801                14.6684

                     58                     59                     60
                      A                      A                      A
 Frequencies --   1322.4864              1352.2636              1440.3197
 Red. masses --      1.3789                 1.3148                 1.2077
 Frc consts  --      1.4209                 1.4166                 1.4761
 IR Inten    --      0.4559                55.1553                 0.5922

                     61                     62                     63
                      A                      A                      A
 Frequencies --   1444.9225              1446.1477              1487.9943
 Red. masses --      1.2040                 1.2017                 1.0796
 Frc consts  --      1.4811                 1.4807                 1.4084
 IR Inten    --      2.9157                 3.2701                 4.9847

                     64                     65                     66
                      A                      A                      A
 Frequencies --   1489.0491              1494.1439              1507.6520
 Red. masses --      1.0840                 1.0841                 1.0911
 Frc consts  --      1.4161                 1.4260                 1.4612
 IR Inten    --      5.4747                 7.4088                 1.1540

                     67                     68                     69
                      A                      A                      A
 Frequencies --   1522.6845              1528.0141              1529.9100
 Red. masses --      1.1068                 1.0453                 1.0450
 Frc consts  --      1.5120                 1.4379                 1.4412
 IR Inten    --     17.6786                10.0610                 7.5480

                     70                     71                     72
                      A                      A                      A
 Frequencies --   1531.4670              1532.4350              1533.6746
 Red. masses --      1.0411                 1.0395                 1.0429
 Frc consts  --      1.4387                 1.4383                 1.4453
 IR Inten    --      3.1428                 4.4937                 3.3694

                     73                     74                     75
                      A                      A                      A
 Frequencies --   1535.1138              1658.7465              3024.4358
 Red. masses --      1.0442                 8.1602                 1.0691
 Frc consts  --      1.4498                13.2286                 5.7620
 IR Inten    --      5.5807               281.1598                76.2964

                     76                     77                     78
                      A                      A                      A
 Frequencies --   3049.9344              3054.3608              3057.3890
 Red. masses --      1.0584                 1.0559                 1.0357
 Frc consts  --      5.8006                 5.8038                 5.7042
 IR Inten    --      6.5912                 1.8537                19.7738

                     79                     80                     81
                      A                      A                      A
 Frequencies --   3058.4008              3059.9699              3065.0853
 Red. masses --      1.0359                 1.0399                 1.0604
 Frc consts  --      5.7091                 5.7367                 5.8698
 IR Inten    --     24.8122                36.6957                 5.2902

                     82                     83                     84
                      A                      A                      A
 Frequencies --   3074.7297              3090.2318              3094.5384
 Red. masses --      1.0690                 1.0862                 1.1040
 Frc consts  --      5.9544                 6.1112                 6.2287
 IR Inten    --     12.8224                62.3768                 2.8800

                     85                     86                     87
                      A                      A                      A
 Frequencies --   3099.3841              3102.0055              3121.9257
 Red. masses --      1.1028                 1.1028                 1.1016
 Frc consts  --      6.2415                 6.2522                 6.3258
 IR Inten    --      5.2039                 0.4079                21.6988

                     88                     89                     90
                      A                      A                      A
 Frequencies --   3123.4685              3124.5755              3131.8767
 Red. masses --      1.1027                 1.1022                 1.1032
 Frc consts  --      6.3384                 6.3400                 6.3756
 IR Inten    --      8.1955                34.5535                16.4543

                     91                     92                     93
                      A                      A                      A
 Frequencies --   3133.7014              3135.2531              3140.6614
 Red. masses --      1.1032                 1.1035                 1.1065
 Frc consts  --      6.3830                 6.3908                 6.4308
 IR Inten    --     35.3947                18.2587                14.3529

 - Thermochemistry -
 -------------------
 Temperature   298.150 Kelvin.  Pressure   1.00000 Atm.
 Atom     1 has atomic number 79 and mass 196.96660

 Molecular mass:   433.03626 amu.
 Principal axes and moments of inertia in atomic units:
                           1         2         3
     Eigenvalues --  2773.477159535.16822**********
           X            0.99999  -0.00124  -0.00358
           Y            0.00125   0.99999   0.00372
           Z            0.00358  -0.00372   0.99999
 This molecule is an asymmetric top.
 Rotational symmetry number  1.
 Warning -- assumption of classical behavior for rotation
           may cause significant error
 Rotational temperatures (Kelvin)      0.03123     0.00908     0.00838
 Rotational constants (GHZ):           0.65071     0.18927     0.17458
 Zero-point vibrational energy     716245.0 (Joules/Mol)
                                  171.18666 (Kcal/Mol)
 Warning -- explicit consideration of  29 degrees of freedom as
           vibrations may cause significant error
 Vibrational temperatures:     25.56    30.51    40.33    73.34    80.09
          (Kelvin)             95.22   113.42   129.04   163.56   189.84
                              195.45   208.09   252.66   276.84   299.94
                              318.60   332.08   358.18   368.74   383.65
                              453.47   513.19   545.30   613.13   624.16
                              782.59   807.39   882.71   887.91   969.51
                             1001.86  1026.33  1077.01  1108.10  1130.64
                             1242.02  1323.24  1372.75  1429.65  1433.36
                             1435.55  1451.88  1469.55  1474.10  1500.05
                             1500.63  1541.83  1550.60  1559.74  1686.07
                             1770.91  1841.32  1845.42  1857.44  1877.64
                             1881.02  1886.04  1902.76  1945.60  2072.30
                             2078.92  2080.68  2140.89  2142.41  2149.74
                             2169.17  2190.80  2198.47  2201.20  2203.44
                             2204.83  2206.61  2208.68  2386.56  4351.48
                             4388.17  4394.54  4398.90  4400.35  4402.61
                             4409.97  4423.84  4446.15  4452.35  4459.32
                             4463.09  4491.75  4493.97  4495.56  4506.07
                             4508.69  4510.92  4518.71

 Zero-point correction=                           0.272803 (Hartree/Particle)
 Thermal correction to Energy=                    0.292849
 Thermal correction to Enthalpy=                  0.293793
 Thermal correction to Gibbs Free Energy=         0.219459
 Sum of electronic and zero-point Energies=          -1682.155793
 Sum of electronic and thermal Energies=             -1682.135747
 Sum of electronic and thermal Enthalpies=           -1682.134803
 Sum of electronic and thermal Free Energies=        -1682.209137

                     E (Thermal)             CV                S
                      KCal/Mol        Cal/Mol-Kelvin    Cal/Mol-Kelvin
 Total                  183.765             68.188            156.450
 Electronic               0.000              0.000              0.000
 Translational            0.889              2.981             44.087
 Rotational               0.889              2.981             33.969
 Vibrational            181.988             62.226             78.395
 Vibration     1          0.593              1.986              6.869
 Vibration     2          0.593              1.985              6.518
 Vibration     3          0.593              1.984              5.964
 Vibration     4          0.595              1.977              4.779
 Vibration     5          0.596              1.975              4.605
 Vibration     6          0.598              1.970              4.264
 Vibration     7          0.600              1.963              3.920
 Vibration     8          0.602              1.956              3.667
 Vibration     9          0.607              1.938              3.205
 Vibration    10          0.612              1.921              2.917
 Vibration    11          0.614              1.918              2.862
 Vibration    12          0.616              1.908              2.742
 Vibration    13          0.628              1.872              2.375
 Vibration    14          0.634              1.850              2.204
 Vibration    15          0.642              1.828              2.057
 Vibration    16          0.648              1.808              1.947
 Vibration    17          0.653              1.794              1.873
 Vibration    18          0.662              1.765              1.738
 Vibration    19          0.666              1.752              1.687
 Vibration    20          0.672              1.734              1.618
 Vibration    21          0.703              1.645              1.335
 Vibration    22          0.732              1.562              1.137
 Vibration    23          0.749              1.515              1.043
 Vibration    24          0.788              1.413              0.871
 Vibration    25          0.795              1.397              0.846
 Vibration    26          0.899              1.153              0.557
 Vibration    27          0.917              1.115              0.522
 Vibration    28          0.973              1.003              0.427
 Vibration    29          0.977              0.996              0.421

 Normal termination of Gaussian 09 at Tue May  2 07:10:29 2023.
