 Gaussian 09, Revision D.01,
 Gaussian 09:  EM64L-G09RevD.01 24-Apr-2013

 ----------------------------------------
 # opt freq=noraman b3lyp/gen pseudo=read
 ----------------------------------------

 --
 af
 --
 Symbolic Z-matrix:
 Charge =  0 Multiplicity = 1

 SCF Done:  E(RB3LYP) =  -1492.04147478     A.U. after   15 cycles
 SCF Done:  E(RB3LYP) =  -1492.04054381     A.U. after   13 cycles
 SCF Done:  E(RB3LYP) =  -1492.04209290     A.U. after    9 cycles
 SCF Done:  E(RB3LYP) =  -1492.04323174     A.U. after   11 cycles
 SCF Done:  E(RB3LYP) =  -1492.04340290     A.U. after   11 cycles
 SCF Done:  E(RB3LYP) =  -1492.01924188     A.U. after   14 cycles
 SCF Done:  E(RB3LYP) =  -1492.04347477     A.U. after    9 cycles
 SCF Done:  E(RB3LYP) =  -1492.04348585     A.U. after    9 cycles
 SCF Done:  E(RB3LYP) =  -1492.04349510     A.U. after    9 cycles
 SCF Done:  E(RB3LYP) =  -1492.04349436     A.U. after    9 cycles
 SCF Done:  E(RB3LYP) =  -1492.04349427     A.U. after    8 cycles
 SCF Done:  E(RB3LYP) =  -1492.04349451     A.U. after    7 cycles
 SCF Done:  E(RB3LYP) =  -1492.04349434     A.U. after    7 cycles
 Optimization completed.
    -- Stationary point found.

 1\1\GINC-NEQC31\FOpt\RB3LYP\Gen\C13H20Au1N2P1S1\GUEST2\02-May-2023\0\\
 # opt freq=noraman b3lyp/gen pseudo=read\\af\\0,1\Au,0.7855736858,-0.8
 047250349,0.0410750868\S,-1.0800001535,-2.2348361443,0.0520138119\P,2.
 6250806999,0.577118213,0.0338144367\C,2.5806354701,1.8841321764,1.3502
 057855\C,2.3479189375,1.3332916327,2.7638970266\H,1.7666280181,2.56600
 83015,1.0755374354\H,3.5146838139,2.4578297968,1.3059353186\H,2.304022
 309,2.1568405559,3.484828391\H,1.4047597681,0.7805544961,2.820933079\H
 ,3.1540729827,0.6617461164,3.0788289779\C,4.2425192226,-0.2947764061,0

 Normal termination of Gaussian 09 at Tue May  2 07:21:59 2023.

 ------------------------------------------------------------------
 #N Geom=AllCheck Guess=TCheck SCRF=Check GenChk RB3LYP/ChkBas Freq
 ------------------------------------------------------------------

 Structure from the checkpoint file:  "/home/scr/guest2/Gau-15503.chk"
 --
 af
 --
 Charge =  0 Multiplicity = 1

                         Standard orientation:
 ---------------------------------------------------------------------
 Center     Atomic      Atomic             Coordinates (Angstroms)
 Number     Number       Type             X           Y           Z
 ---------------------------------------------------------------------
      1         79           0        0.791336   -0.720112    0.017247
      2         16           0       -1.062685   -2.165172    0.006500
      3         15           0        2.619678    0.676422    0.030950
      4          6           0        2.564572    1.963339    1.366597
      5          6           0        2.336121    1.389709    2.771896
      6          1           0        1.745143    2.642658    1.101892
      7          1           0        3.493984    2.545118    1.331075
      8          1           0        2.285521    2.202080    3.504968
      9          1           0        1.397428    0.828626    2.820491
     10          1           0        3.147609    0.720059    3.077012
     11          6           0        4.244040   -0.186254    0.281028
     12          6           0        4.549440   -1.249681   -0.782093
     13          1           0        4.193539   -0.651190    1.272270
     14          1           0        5.039787    0.568304    0.320686
     15          1           0        5.494188   -1.754001   -0.551808
     16          1           0        3.760644   -2.008102   -0.819875
     17          1           0        4.644064   -0.811485   -1.781626
     18          6           0        2.788119    1.639568   -1.549128
     19          6           0        3.970328    2.612323   -1.652932
     20          1           0        1.836111    2.169938   -1.672618
     21          1           0        2.822661    0.898781   -2.356331
     22          1           0        3.955283    3.113516   -2.627117
     23          1           0        3.929433    3.390564   -0.883872
     24          1           0        4.933672    2.098600   -1.564488
     25          6           0       -2.352926   -0.973450   -0.033505
     26          7           0       -2.244764    0.341345   -0.038170
     27          6           0       -4.469107   -0.262596   -0.093615
     28          6           0       -3.548609    0.816231   -0.076026
     29          6           0       -5.849399   -0.072343   -0.132242
     30          6           0       -4.028601    2.130832   -0.098245
     31          6           0       -6.305298    1.247020   -0.154028
     32          1           0       -6.543376   -0.908590   -0.145309
     33          6           0       -5.407931    2.330595   -0.137303
     34          1           0       -3.334337    2.966092   -0.085528
     35          1           0       -7.374459    1.438734   -0.184605
     36          1           0       -5.801215    3.343664   -0.155372
     37          7           0       -3.670420   -1.393326   -0.065296
     38          1           0       -3.971627   -2.355974   -0.068784
 ---------------------------------------------------------------------

 SCF Done:  E(RB3LYP) =  -1492.04349434     A.U. after    1 cycles

 The electronic state is 1-A.
 Alpha  occ. eigenvalues --  -88.82079 -77.12104 -14.35921 -14.28774 -10.24717
 Alpha  occ. eigenvalues --  -10.21452 -10.21327 -10.21253 -10.20086 -10.19821
 Alpha  occ. eigenvalues --  -10.19558 -10.19165 -10.18152 -10.16814 -10.16163
 Alpha  occ. eigenvalues --  -10.15930 -10.15857  -7.89759  -6.60076  -5.86174
 Alpha  occ. eigenvalues --   -5.85656  -5.85335  -4.76225  -4.76213  -4.75988
 Alpha  occ. eigenvalues --   -4.15925  -2.30617  -2.28437  -2.28422  -0.99163
 Alpha  occ. eigenvalues --   -0.85347  -0.82279  -0.82066  -0.78103  -0.78040
 Alpha  occ. eigenvalues --   -0.73939  -0.71940  -0.69128  -0.67512  -0.65039
 Alpha  occ. eigenvalues --   -0.64017  -0.60333  -0.57602  -0.56971  -0.56080
 Alpha  occ. eigenvalues --   -0.51560  -0.49226  -0.47778  -0.47679  -0.47424
 Alpha  occ. eigenvalues --   -0.45884  -0.44380  -0.44044  -0.42881  -0.42028
 Alpha  occ. eigenvalues --   -0.41991  -0.41278  -0.40803  -0.40113  -0.39803
 Alpha  occ. eigenvalues --   -0.38963  -0.38638  -0.38083  -0.37103  -0.35820
 Alpha  occ. eigenvalues --   -0.34784  -0.34559  -0.34159  -0.33465  -0.32690
 Alpha  occ. eigenvalues --   -0.31433  -0.30358  -0.29456  -0.29437  -0.28263
 Alpha  occ. eigenvalues --   -0.27144  -0.25737  -0.23735  -0.23684  -0.20500
 Alpha  occ. eigenvalues --   -0.17689
 Alpha virt. eigenvalues --   -0.01219  -0.01106   0.01336   0.01737   0.03453
 Alpha virt. eigenvalues --    0.04346   0.05422   0.05530   0.07634   0.08187
 Alpha virt. eigenvalues --    0.08647   0.09270   0.09909   0.10794   0.11083

 Mulliken charges:
               1
     1  Au  -0.061227
     2  S   -0.166976
     3  P    0.469446
     4  C   -0.447793
     5  C   -0.469397
     6  H    0.192068
     7  H    0.168707
     8  H    0.161956
     9  H    0.211584
    10  H    0.155583
    11  C   -0.444422
    12  C   -0.470892
    13  H    0.190964
    14  H    0.169414
    15  H    0.162453
    16  H    0.204382
    17  H    0.157546
    18  C   -0.455875
    19  C   -0.456281
    20  H    0.200451
    21  H    0.193798
    22  H    0.167695
    23  H    0.159506
    24  H    0.157266
    25  C    0.289451
    26  N   -0.444462
    27  C    0.318064
    28  C    0.197731
    29  C   -0.175773
    30  C   -0.179491
    31  C   -0.151575
    32  H    0.119287
    33  C   -0.143262
    34  H    0.123150
    35  H    0.115679
    36  H    0.113301
    37  N   -0.667992
    38  H    0.335935
 Sum of Mulliken charges =   0.00000

 Dipole moment (field-independent basis, Debye):
    X=              6.9582    Y=              2.5575    Z=              0.0535  Tot=              7.4135
 Quadrupole moment (field-independent basis, Debye-Ang):
   XX=           -115.5370   YY=           -135.3421   ZZ=           -140.7968
   XY=             12.9995   XZ=             -0.2734   YZ=              0.1333

  Exact polarizability: 330.230 -11.787 228.138  -0.692  -0.628 144.391
 Approx polarizability: 433.894 -14.955 392.973   3.188  -2.084 225.867

                      1                      2                      3
                      A                      A                      A
 Frequencies --     14.6262                20.9203                22.0936
 Red. masses --      4.0769                 4.5570                 5.1431
 Frc consts  --      0.0005                 0.0012                 0.0015
 IR Inten    --      0.0395                 4.3605                 1.9571

                      4                      5                      6
                      A                      A                      A
 Frequencies --     47.9033                53.9898                57.7927
 Red. masses --      5.6969                 2.9547                 4.1449
 Frc consts  --      0.0077                 0.0051                 0.0082
 IR Inten    --      0.9807                 0.5304                 1.3919

                      7                      8                      9
                      A                      A                      A
 Frequencies --     74.2846                88.7131               112.0840
 Red. masses --      2.6322                 2.2032                 4.0671
 Frc consts  --      0.0086                 0.0102                 0.0301
 IR Inten    --      0.0847                 0.0761                 0.0646

                     10                     11                     12
                      A                      A                      A
 Frequencies --    112.9577               137.0713               142.4069
 Red. masses --      6.0315                 3.0345                 2.8550
 Frc consts  --      0.0453                 0.0336                 0.0341
 IR Inten    --      0.0505                 0.1903                 0.6373

                     13                     14                     15
                      A                      A                      A
 Frequencies --    174.4602               180.3382               189.4779
 Red. masses --      1.9388                 5.4378                 1.4856
 Frc consts  --      0.0348                 0.1042                 0.0314
 IR Inten    --      0.5073                 5.4860                 0.3905

                     16                     17                     18
                      A                      A                      A
 Frequencies --    229.4139               250.8132               253.2606
 Red. masses --      2.0408                 1.4715                 5.3365
 Frc consts  --      0.0633                 0.0545                 0.2017
 IR Inten    --      0.1455                 0.0393                 1.6249

                     19                     20                     21
                      A                      A                      A
 Frequencies --    253.8661               270.9187               314.6091
 Red. masses --      1.3948                 1.8499                 6.7044
 Frc consts  --      0.0530                 0.0800                 0.3910
 IR Inten    --      0.1798                 0.4665                 0.0848

                     22                     23                     24
                      A                      A                      A
 Frequencies --    316.1743               341.2386               378.8825
 Red. masses --      2.8078                13.5172                 3.5095
 Frc consts  --      0.1654                 0.9274                 0.2968
 IR Inten    --      0.7921                 6.7190                 2.6221

                     25                     26                     27
                      A                      A                      A
 Frequencies --    411.8367               430.9759               435.9243
 Red. masses --     13.2657                 1.6440                 3.5368
 Frc consts  --      1.3257                 0.1799                 0.3960
 IR Inten    --     16.7254                38.9835                 9.3288

                     28                     29                     30
                      A                      A                      A
 Frequencies --    446.8756               502.5040               589.4038
 Red. masses --      1.8350                 5.7260                 3.9513
 Frc consts  --      0.2159                 0.8519                 0.8088
 IR Inten    --     56.0883                10.5582                 1.6048

                     31                     32                     33
                      A                      A                      A
 Frequencies --    606.7962               618.4764               629.8907
 Red. masses --      8.1567                 3.4066                 6.7550
 Frc consts  --      1.7695                 0.7677                 1.5791
 IR Inten    --      6.3461                11.0089                 0.3741

                     34                     35                     36
                      A                      A                      A
 Frequencies --    674.4861               690.3237               695.7412
 Red. masses --      2.6049                 5.3597                 3.2585
 Frc consts  --      0.6982                 1.5049                 0.9293
 IR Inten    --      2.9988                 3.8162                11.1542

                     37                     38                     39
                      A                      A                      A
 Frequencies --    750.5616               752.1991               769.4781
 Red. masses --      1.4629                 1.3601                 3.7315
 Frc consts  --      0.4856                 0.4534                 1.3017
 IR Inten    --     28.0357                45.7793                 6.4135

                     40                     41                     42
                      A                      A                      A
 Frequencies --    771.5090               786.9869               827.3343
 Red. masses --      1.2902                 1.2947                 4.8954
 Frc consts  --      0.4525                 0.4724                 1.9743
 IR Inten    --     14.0462                52.3531                 0.7757

                     43                     44                     45
                      A                      A                      A
 Frequencies --    855.6167               905.2967               914.8565
 Red. masses --      1.4817                 6.1121                 1.3524
 Frc consts  --      0.6391                 2.9514                 0.6669
 IR Inten    --      0.1519                 2.2916                 1.6989

                     46                     47                     48
                      A                      A                      A
 Frequencies --    960.1704               978.3243               993.4478
 Red. masses --      1.2185                 9.0419                 1.7124
 Frc consts  --      0.6619                 5.0989                 0.9957
 IR Inten    --      0.0095                11.8654                 0.3474

                     49                     50                     51
                      A                      A                      A
 Frequencies --    995.5581               998.0420              1008.9869
 Red. masses --      1.6372                 1.5938                 1.4370
 Frc consts  --      0.9561                 0.9354                 0.8619
 IR Inten    --      0.2381                 0.3687                 7.4164

                     52                     53                     54
                      A                      A                      A
 Frequencies --   1022.0052              1039.2619              1043.2202
 Red. masses --      1.4139                 2.0895                 1.6274
 Frc consts  --      0.8701                 1.3296                 1.0435
 IR Inten    --      2.3161                 4.0550                 6.5403

                     55                     56                     57
                      A                      A                      A
 Frequencies --   1072.1947              1078.5471              1084.1912
 Red. masses --      1.5874                 1.7433                 1.7701
 Frc consts  --      1.0752                 1.1948                 1.2259
 IR Inten    --     61.2179                16.4650                11.9550

                     58                     59                     60
                      A                      A                      A
 Frequencies --   1137.4216              1169.1368              1181.4846
 Red. masses --      1.6180                 1.8236                 1.1269
 Frc consts  --      1.2333                 1.4686                 0.9268
 IR Inten    --      1.6511                41.1879                 1.7606

                     61                     62                     63
                      A                      A                      A
 Frequencies --   1255.7310              1279.3878              1282.8102
 Red. masses --      2.6491                 1.2379                 1.2340
 Frc consts  --      2.4611                 1.1938                 1.1965
 IR Inten    --     11.9788                 1.8113                 0.8158

                     64                     65                     66
                      A                      A                      A
 Frequencies --   1291.4991              1301.3198              1307.2595
 Red. masses --      1.2026                 4.5049                 1.3821
 Frc consts  --      1.1818                 4.4948                 1.3916
 IR Inten    --      9.1194                83.3949                 3.9395

                     67                     68                     69
                      A                      A                      A
 Frequencies --   1311.3031              1322.1689              1322.8111
 Red. masses --      1.3838                 1.3824                 2.1829
 Frc consts  --      1.4019                 1.4238                 2.2505
 IR Inten    --     10.3196                 0.4293                48.3398

                     70                     71                     72
                      A                      A                      A
 Frequencies --   1380.0896              1434.8901              1442.9926
 Red. masses --      4.0109                 3.1452                 1.2041
 Frc consts  --      4.5010                 3.8154                 1.4773
 IR Inten    --     94.7124                22.9561                 3.5686

                     73                     74                     75
                      A                      A                      A
 Frequencies --   1443.9130              1445.1266              1469.0852
 Red. masses --      1.2064                 1.2030                 4.4474
 Frc consts  --      1.4819                 1.4803                 5.6552
 IR Inten    --      2.2238                 2.0156               341.5545

                     76                     77                     78
                      A                      A                      A
 Frequencies --   1489.8732              1491.1948              1494.3197
 Red. masses --      1.0798                 1.0829                 1.0858
 Frc consts  --      1.4121                 1.4188                 1.4286
 IR Inten    --      0.5474                 8.1779                 8.6733

                     79                     80                     81
                      A                      A                      A
 Frequencies --   1510.9172              1528.5707              1528.9198
 Red. masses --      3.0659                 1.0455                 1.0448
 Frc consts  --      4.1238                 1.4393                 1.4390
 IR Inten    --     18.5134                 5.1243                 9.5408

                     82                     83                     84
                      A                      A                      A
 Frequencies --   1530.2849              1531.2083              1533.6252
 Red. masses --      1.0396                 1.0415                 1.0482
 Frc consts  --      1.4344                 1.4387                 1.4526
 IR Inten    --      7.1908                 3.3885                 3.2258

                     85                     86                     87
                      A                      A                      A
 Frequencies --   1536.9478              1537.8246              1639.6308
 Red. masses --      1.0399                 2.7421                 6.1674
 Frc consts  --      1.4473                 3.8207                 9.7689
 IR Inten    --      5.0483                31.4060                 4.7547

                     88                     89                     90
                      A                      A                      A
 Frequencies --   1673.6523              3052.0121              3053.3303
 Red. masses --      6.7047                 1.0579                 1.0565
 Frc consts  --     11.0653                 5.8058                 5.8034
 IR Inten    --      3.1700                 4.3488                 2.9199

                     91                     92                     93
                      A                      A                      A
 Frequencies --   3057.2950              3058.1529              3059.3051
 Red. masses --      1.0356                 1.0357                 1.0402
 Frc consts  --      5.7033                 5.7071                 5.7360
 IR Inten    --     21.4796                24.2359                38.3302

                     94                     95                     96
                      A                      A                      A
 Frequencies --   3065.0633              3096.3138              3099.4308
 Red. masses --      1.0604                 1.1037                 1.1026
 Frc consts  --      5.8694                 6.2343                 6.2409
 IR Inten    --      5.2317                 1.6281                 7.0902

                     97                     98                     99
                      A                      A                      A
 Frequencies --   3101.9380              3121.3484              3122.9228
 Red. masses --      1.1029                 1.1017                 1.1027
 Frc consts  --      6.2524                 6.3242                 6.3361
 IR Inten    --      0.0827                23.2901                 6.7290

                    100                    101                    102
                      A                      A                      A
 Frequencies --   3123.9267              3131.7436              3133.7884
 Red. masses --      1.1021                 1.1030                 1.1033
 Frc consts  --      6.3370                 6.3737                 6.3839
 IR Inten    --     34.9736                15.6660                34.0733

                    103                    104                    105
                      A                      A                      A
 Frequencies --   3136.3889              3181.3616              3191.3467
 Red. masses --      1.1035                 1.0849                 1.0892
 Frc consts  --      6.3958                 6.4693                 6.5359
 IR Inten    --     20.6454                 0.5829                14.6374

                    106                    107                    108
                      A                      A                      A
 Frequencies --   3203.5711              3211.8739              3662.9648
 Red. masses --      1.0935                 1.0962                 1.0803
 Frc consts  --      6.6123                 6.6626                 8.5398
 IR Inten    --     40.5458                26.5362                56.7233

 - Thermochemistry -
 -------------------
 Temperature   298.150 Kelvin.  Pressure   1.00000 Atm.
 Atom     1 has atomic number 79 and mass 196.96660

 Molecular mass:   464.07508 amu.
 Principal axes and moments of inertia in atomic units:
                           1         2         3
     Eigenvalues --  3508.40082********************
           X            0.99992   0.01270  -0.00204
           Y           -0.01269   0.99992   0.00280
           Z            0.00207  -0.00278   0.99999
 This molecule is an asymmetric top.
 Rotational symmetry number  1.
 Warning -- assumption of classical behavior for rotation
           may cause significant error
 Rotational temperatures (Kelvin)      0.02469     0.00603     0.00536
 Rotational constants (GHZ):           0.51441     0.12555     0.11178
 Zero-point vibrational energy     819733.8 (Joules/Mol)
                                  195.92109 (Kcal/Mol)
 Warning -- explicit consideration of  32 degrees of freedom as
           vibrations may cause significant error
 Vibrational temperatures:     21.04    30.10    31.79    68.92    77.68
          (Kelvin)             83.15   106.88   127.64   161.26   162.52
                              197.21   204.89   251.01   259.47   272.62
                              330.08   360.86   364.39   365.26   389.79
                              452.65   454.90   490.97   545.13   592.54
                              620.08   627.20   642.95   722.99   848.02
                              873.04   889.85   906.27   970.43   993.22
                             1001.02  1079.89  1082.25  1107.11  1110.03
                             1132.30  1190.35  1231.04  1302.52  1316.27
                             1381.47  1407.59  1429.35  1432.38  1435.96
                             1451.71  1470.44  1495.26  1500.96  1542.65
                             1551.79  1559.91  1636.49  1682.13  1699.89
                             1806.71  1840.75  1845.68  1858.18  1872.31
                             1880.85  1886.67  1902.30  1903.23  1985.64
                             2064.48  2076.14  2077.47  2079.21  2113.68
                             2143.59  2145.49  2149.99  2173.87  2199.27
                             2199.77  2201.74  2203.06  2206.54  2211.32
                             2212.58  2359.06  2408.01  4391.16  4393.06
                             4398.76  4399.99  4401.65  4409.94  4454.90
                             4459.38  4462.99  4490.92  4493.18  4494.63
                             4505.87  4508.82  4512.56  4577.26  4591.63
                             4609.22  4621.16  5270.18

 Zero-point correction=                           0.312220 (Hartree/Particle)
 Thermal correction to Energy=                    0.333885
 Thermal correction to Enthalpy=                  0.334829
 Thermal correction to Gibbs Free Energy=         0.256825
 Sum of electronic and zero-point Energies=          -1491.731274
 Sum of electronic and thermal Energies=             -1491.709610
 Sum of electronic and thermal Enthalpies=           -1491.708665
 Sum of electronic and thermal Free Energies=        -1491.786669

                     E (Thermal)             CV                S
                      KCal/Mol        Cal/Mol-Kelvin    Cal/Mol-Kelvin
 Total                  209.516             77.121            164.172
 Electronic               0.000              0.000              0.000
 Translational            0.889              2.981             44.293
 Rotational               0.889              2.981             35.053
 Vibrational            207.738             71.159             84.826
 Vibration     1          0.593              1.986              7.256
 Vibration     2          0.593              1.986              6.545
 Vibration     3          0.593              1.985              6.437
 Vibration     4          0.595              1.978              4.902
 Vibration     5          0.596              1.976              4.666
 Vibration     6          0.596              1.974              4.531
 Vibration     7          0.599              1.966              4.036
 Vibration     8          0.602              1.957              3.688
 Vibration     9          0.607              1.939              3.233
 Vibration    10          0.607              1.939              3.217
 Vibration    11          0.614              1.916              2.844
 Vibration    12          0.616              1.911              2.771
 Vibration    13          0.627              1.874              2.387
 Vibration    14          0.629              1.866              2.325
 Vibration    15          0.633              1.854              2.233
 Vibration    16          0.652              1.796              1.884
 Vibration    17          0.663              1.761              1.725
 Vibration    18          0.664              1.757              1.708
 Vibration    19          0.665              1.756              1.704
 Vibration    20          0.675              1.727              1.590
 Vibration    21          0.702              1.646              1.338
 Vibration    22          0.703              1.643              1.330
 Vibration    23          0.721              1.593              1.206
 Vibration    24          0.749              1.515              1.044
 Vibration    25          0.776              1.445              0.920
 Vibration    26          0.792              1.403              0.855
 Vibration    27          0.796              1.392              0.840
 Vibration    28          0.806              1.368              0.805
 Vibration    29          0.858              1.244              0.652
 Vibration    30          0.947              1.054              0.468
 Vibration    31          0.966              1.017              0.438
 Vibration    32          0.978              0.993              0.419

 1\1\GINC-NEQC31\Freq\RB3LYP\Gen\C13H20Au1N2P1S1\GUEST2\02-May-2023\0\\
 #N Geom=AllCheck Guess=TCheck SCRF=Check GenChk RB3LYP/ChkBas Freq\\af
 \\0,1\Au,0.7855736858,-0.8047250349,0.0410750868\S,-1.0800001535,-2.23
 48361443,0.0520138119\P,2.6250806999,0.577118213,0.0338144367\C,2.5806
 354701,1.8841321764,1.3502057855\C,2.3479189375,1.3332916327,2.7638970
 266\H,1.7666280181,2.5660083015,1.0755374354\H,3.5146838139,2.45782979
 68,1.3059353186\H,2.304022309,2.1568405559,3.484828391\H,1.4047597681,
 0.7805544961,2.820933079\H,3.1540729827,0.6617461164,3.0788289779\C,4.

 Normal termination of Gaussian 09 at Tue May  2 07:27:48 2023.
