 Gaussian 09, Revision D.01,
 Gaussian 09:  EM64L-G09RevD.01 24-Apr-2013

 ----------------------------------------
 # opt freq=noraman b3lyp/gen pseudo=read
 ----------------------------------------

 -------------------
 Title Card Required
 -------------------
 Symbolic Z-matrix:
 Charge =  0 Multiplicity = 1

 SCF Done:  E(RB3LYP) =  -1511.89587805     A.U. after   15 cycles
 SCF Done:  E(RB3LYP) =  -1511.89766686     A.U. after   11 cycles
 SCF Done:  E(RB3LYP) =  -1511.89207070     A.U. after   12 cycles
 SCF Done:  E(RB3LYP) =  -1511.89779766     A.U. after    9 cycles
 SCF Done:  E(RB3LYP) =  -1511.89715781     A.U. after   11 cycles
 SCF Done:  E(RB3LYP) =  -1511.89352319     A.U. after   13 cycles
 SCF Done:  E(RB3LYP) =  -1511.89785978     A.U. after    8 cycles
 SCF Done:  E(RB3LYP) =  -1511.89790551     A.U. after   10 cycles
 SCF Done:  E(RB3LYP) =  -1511.89792888     A.U. after    9 cycles
 SCF Done:  E(RB3LYP) =  -1511.89793359     A.U. after    9 cycles
 SCF Done:  E(RB3LYP) =  -1511.89793215     A.U. after    8 cycles
 SCF Done:  E(RB3LYP) =  -1511.89793217     A.U. after    7 cycles
 Optimization completed.
    -- Stationary point found.
 Normal termination of Gaussian 09 at Tue May  2 07:38:00 2023.

 ------------------------------------------------------------------
 #N Geom=AllCheck Guess=TCheck SCRF=Check GenChk RB3LYP/ChkBas Freq
 ------------------------------------------------------------------

 Structure from the checkpoint file:  "/home/scr/guest2/Gau-18450.chk"
 -------------------
 Title Card Required
 -------------------
 Charge =  0 Multiplicity = 1

                         Standard orientation:
 ---------------------------------------------------------------------
 Center     Atomic      Atomic             Coordinates (Angstroms)
 Number     Number       Type             X           Y           Z
 ---------------------------------------------------------------------
      1         79           0        0.750803   -0.698003    0.016065
      2         16           0       -1.073124   -2.171829    0.003872
      3         15           0        2.610251    0.667093    0.033699
      4          6           0        2.594218    1.948867    1.375616
      5          6           0        2.364961    1.374429    2.780528
      6          1           0        1.790187    2.650049    1.120533
      7          1           0        3.536842    2.508381    1.334821
      8          1           0        2.333616    2.184931    3.516612
      9          1           0        1.417602    0.828467    2.835194
     10          1           0        3.166945    0.690237    3.077851
     11          6           0        4.206626   -0.245692    0.281111
     12          6           0        4.482480   -1.313715   -0.785840
     13          1           0        4.141389   -0.712571    1.270517
     14          1           0        5.024005    0.485066    0.324651
     15          1           0        5.414526   -1.841926   -0.557977
     16          1           0        3.675827   -2.053076   -0.824356
     17          1           0        4.586844   -0.875759   -1.784448
     18          6           0        2.806709    1.630371   -1.543098
     19          6           0        4.023404    2.559654   -1.646931
     20          1           0        1.874707    2.196396   -1.661607
     21          1           0        2.811192    0.892261   -2.353405
     22          1           0        4.022335    3.066200   -2.618378
     23          1           0        4.014879    3.334666   -0.873642
     24          1           0        4.967354    2.010231   -1.566155
     25          6           0       -2.461724   -1.115615   -0.036813
     26          6           0       -4.430629   -0.298887   -0.078680
     27          6           0       -3.536338    0.781851   -0.096687
     28          6           0       -5.806425   -0.055734   -0.099183
     29          6           0       -3.928166    2.109780   -0.134553
     30          6           0       -6.227606    1.275716   -0.137372
     31          1           0       -6.513725   -0.878892   -0.085685
     32          6           0       -5.309325    2.339313   -0.154819
     33          1           0       -3.208766    2.922339   -0.148021
     34          1           0       -7.291408    1.496851   -0.154145
     35          1           0       -5.676574    3.361347   -0.184811
     36          7           0       -3.706488   -1.488188   -0.040592
     37          8           0       -2.263585    0.261897   -0.069961
 ---------------------------------------------------------------------

 SCF Done:  E(RB3LYP) =  -1511.89793217     A.U. after    1 cycles

 The electronic state is 1-A.
 Alpha  occ. eigenvalues --  -88.83000 -77.12847 -19.19503 -14.30003 -10.27329
 Alpha  occ. eigenvalues --  -10.22235 -10.22088 -10.22082 -10.22039 -10.20701
 Alpha  occ. eigenvalues --  -10.20086 -10.19874 -10.19320 -10.17774 -10.17221
 Alpha  occ. eigenvalues --  -10.16917 -10.16873  -7.90677  -6.60831  -5.87093
 Alpha  occ. eigenvalues --   -5.86557  -5.86258  -4.76977  -4.76967  -4.76744
 Alpha  occ. eigenvalues --   -4.17018  -2.31681  -2.29576  -2.29476  -1.10016
 Alpha  occ. eigenvalues --   -0.90063  -0.83456  -0.82984  -0.78802  -0.78680
 Alpha  occ. eigenvalues --   -0.75234  -0.73216  -0.69814  -0.68780  -0.65684
 Alpha  occ. eigenvalues --   -0.64720  -0.60085  -0.59107  -0.57249  -0.56187
 Alpha  occ. eigenvalues --   -0.49972  -0.49567  -0.48776  -0.48384  -0.48144
 Alpha  occ. eigenvalues --   -0.46552  -0.45161  -0.45073  -0.44920  -0.43632
 Alpha  occ. eigenvalues --   -0.42853  -0.41454  -0.40834  -0.40444  -0.39904
 Alpha  occ. eigenvalues --   -0.39362  -0.39182  -0.38692  -0.37796  -0.36412
 Alpha  occ. eigenvalues --   -0.35666  -0.35561  -0.34825  -0.33946  -0.33677
 Alpha  occ. eigenvalues --   -0.32738  -0.31375  -0.30993  -0.30486  -0.30406
 Alpha  occ. eigenvalues --   -0.27816  -0.26326  -0.25187  -0.24597  -0.22500
 Alpha  occ. eigenvalues --   -0.18716
 Alpha virt. eigenvalues --   -0.02387  -0.01987   0.00375   0.01074   0.02840
 Alpha virt. eigenvalues --    0.03024   0.04692   0.04856   0.06626   0.07285
 Alpha virt. eigenvalues --    0.08069   0.08703   0.09257   0.10029   0.10384

 Mulliken charges:
               1
     1  Au  -0.088458
     2  S   -0.087682
     3  P    0.468326
     4  C   -0.447210
     5  C   -0.469560
     6  H    0.187189
     7  H    0.171701
     8  H    0.164202
     9  H    0.208443
    10  H    0.158625
    11  C   -0.445467
    12  C   -0.471702
    13  H    0.192928
    14  H    0.171560
    15  H    0.165384
    16  H    0.204938
    17  H    0.158618
    18  C   -0.454633
    19  C   -0.456787
    20  H    0.195184
    21  H    0.196356
    22  H    0.169557
    23  H    0.159798
    24  H    0.159438
    25  C    0.306609
    26  C    0.176779
    27  C    0.313326
    28  C   -0.168473
    29  C   -0.186717
    30  C   -0.144009
    31  H    0.138383
    32  C   -0.144826
    33  H    0.132737
    34  H    0.122459
    35  H    0.121590
    36  N   -0.417558
    37  O   -0.461048
 Sum of Mulliken charges =   0.00000

 Dipole moment (field-independent basis, Debye):
    X=              9.4089    Y=              6.2611    Z=              0.0850  Tot=             11.3020
 Quadrupole moment (field-independent basis, Debye-Ang):
   XX=           -122.8853   YY=           -140.9268   ZZ=           -138.6204
   XY=             -4.0980   XZ=             -0.3620   YZ=             -0.1617

  Exact polarizability: 327.035 -10.130 221.091  -1.497  -1.293 143.792
 Approx polarizability: 437.215  -9.154 375.372   1.443  -3.701 224.603

                      1                      2                      3
                      A                      A                      A
 Frequencies --     15.1356                17.9753                26.2861
 Red. masses --      5.0995                 4.3171                 5.1194
 Frc consts  --      0.0007                 0.0008                 0.0021
 IR Inten    --      0.0465                 0.4131                 0.6748

                      4                      5                      6
                      A                      A                      A
 Frequencies --     47.9250                53.9989                60.8846
 Red. masses --      5.7032                 2.5209                 4.6892
 Frc consts  --      0.0077                 0.0043                 0.0102
 IR Inten    --      0.5528                 0.0596                 0.4982

                      7                      8                      9
                      A                      A                      A
 Frequencies --     76.1096                87.1183               110.8196
 Red. masses --      2.6459                 2.2877                 6.6179
 Frc consts  --      0.0090                 0.0102                 0.0479
 IR Inten    --      0.0400                 0.1455                 0.0073

                     10                     11                     12
                      A                      A                      A
 Frequencies --    113.6023               135.8941               142.9483
 Red. masses --      4.1802                 3.0960                 2.7622
 Frc consts  --      0.0318                 0.0337                 0.0333
 IR Inten    --      0.1447                 0.3385                 0.7488

                     13                     14                     15
                      A                      A                      A
 Frequencies --    175.8527               181.8788               188.9372
 Red. masses --      2.0519                 5.0615                 1.5009
 Frc consts  --      0.0374                 0.0986                 0.0316
 IR Inten    --      1.5118                 9.3956                 0.8828

                     16                     17                     18
                      A                      A                      A
 Frequencies --    229.2271               248.9968               254.9290
 Red. masses --      2.0222                 1.4751                 1.4375
 Frc consts  --      0.0626                 0.0539                 0.0550
 IR Inten    --      0.2231                 0.0502                 0.2045

                     19                     20                     21
                      A                      A                      A
 Frequencies --    255.0467               270.3838               313.6037
 Red. masses --      5.4344                 1.8235                 6.7203
 Frc consts  --      0.2083                 0.0785                 0.3894
 IR Inten    --      0.5392                 0.4841                 0.0298

                     22                     23                     24
                      A                      A                      A
 Frequencies --    315.4462               344.6418               378.8505
 Red. masses --      2.8658                14.3131                 3.5204
 Frc consts  --      0.1680                 1.0017                 0.2977
 IR Inten    --      0.7622                 5.4010                 2.5900

                     25                     26                     27
                      A                      A                      A
 Frequencies --    415.8961               435.1905               437.6469
 Red. masses --     13.2021                 3.5311                 3.1110
 Frc consts  --      1.3454                 0.3940                 0.3511
 IR Inten    --     14.7180                 8.9727                 2.2737

                     28                     29                     30
                      A                      A                      A
 Frequencies --    506.6244               587.5311               605.8405
 Red. masses --      8.4015                 4.2268                 8.8820
 Frc consts  --      1.2705                 0.8597                 1.9208
 IR Inten    --      0.5538                 0.0519                 6.9992

                     31                     32                     33
                      A                      A                      A
 Frequencies --    618.3371               632.6647               675.5759
 Red. masses --      3.3935                 7.1060                 2.5586
 Frc consts  --      0.7645                 1.6758                 0.6880
 IR Inten    --     10.5073                 1.2417                 2.7145

                     34                     35                     36
                      A                      A                      A
 Frequencies --    684.8426               696.5965               750.3655
 Red. masses --      8.3494                 3.2420                 1.4831
 Frc consts  --      2.3072                 0.9269                 0.4920
 IR Inten    --      0.0691                11.7078                29.3216

                     37                     38                     39
                      A                      A                      A
 Frequencies --    757.7288               765.4866               771.2582
 Red. masses --      1.4738                 3.2773                 1.2903
 Frc consts  --      0.4985                 1.1314                 0.4522
 IR Inten    --     46.1872                11.7372                14.5460

                     40                     41                     42
                      A                      A                      A
 Frequencies --    786.8692               829.5338               865.2820
 Red. masses --      1.2954                 5.8486                 1.4430
 Frc consts  --      0.4726                 2.3712                 0.6366
 IR Inten    --     51.1981                11.0102                 0.2385

                     43                     44                     45
                      A                      A                      A
 Frequencies --    901.3947               922.9359               925.4187
 Red. masses --      6.9008                13.6524                 1.3565
 Frc consts  --      3.3036                 6.8517                 0.6844
 IR Inten    --      2.5429                10.8203                 2.8014

                     46                     47                     48
                      A                      A                      A
 Frequencies --    968.2712               993.6548               995.8042
 Red. masses --      1.2288                 1.7319                 1.6266
 Frc consts  --      0.6788                 1.0075                 0.9503
 IR Inten    --      0.0792                 0.3372                 0.2610

                     49                     50                     51
                      A                      A                      A
 Frequencies --    998.1982              1009.0805              1022.6076
 Red. masses --      1.6213                 1.4319                 1.4046
 Frc consts  --      0.9518                 0.8591                 0.8654
 IR Inten    --      0.3607                 7.9368                 3.5267

                     52                     53                     54
                      A                      A                      A
 Frequencies --   1033.6640              1043.0881              1071.3576
 Red. masses --      2.0083                 1.6186                 1.6000
 Frc consts  --      1.2642                 1.0376                 1.0820
 IR Inten    --     10.3276                 6.4954                72.2898

                     55                     56                     57
                      A                      A                      A
 Frequencies --   1078.9405              1084.4946              1107.2001
 Red. masses --      1.7413                 1.7755                 5.9313
 Frc consts  --      1.1943                 1.2304                 4.2840
 IR Inten    --     14.8760                12.0341               143.6472

                     58                     59                     60
                      A                      A                      A
 Frequencies --   1141.6972              1180.1644              1240.8956
 Red. masses --      1.6534                 1.1460                 5.1719
 Frc consts  --      1.2698                 0.9404                 4.6922
 IR Inten    --     52.3063                 2.6837                 7.8757

                     61                     62                     63
                      A                      A                      A
 Frequencies --   1279.7534              1280.8875              1283.3025
 Red. masses --      1.2367                 4.1407                 1.2349
 Frc consts  --      1.1934                 4.0027                 1.1982
 IR Inten    --      3.2996               106.9405                 1.0593

                     64                     65                     66
                      A                      A                      A
 Frequencies --   1291.6871              1307.4355              1311.9240
 Red. masses --      1.1998                 1.3829                 1.3848
 Frc consts  --      1.1794                 1.3928                 1.4043
 IR Inten    --      5.1331                 4.7920                10.4128

                     67                     68                     69
                      A                      A                      A
 Frequencies --   1318.3838              1321.8278              1399.5922
 Red. masses --      1.6017                 1.3804                 5.6227
 Frc consts  --      1.6402                 1.4210                 6.4893
 IR Inten    --      6.7617                 0.3537                10.0573

                     70                     71                     72
                      A                      A                      A
 Frequencies --   1443.4673              1444.7613              1445.5593
 Red. masses --      1.2057                 1.2042                 1.2009
 Frc consts  --      1.4801                 1.4810                 1.4785
 IR Inten    --      0.9884                 3.3002                 2.9056

                     73                     74                     75
                      A                      A                      A
 Frequencies --   1489.4961              1490.6639              1494.4289
 Red. masses --      1.0792                 1.0826                 1.0860
 Frc consts  --      1.4107                 1.4173                 1.4290
 IR Inten    --      3.2057                 8.2111                 7.6981

                     76                     77                     78
                      A                      A                      A
 Frequencies --   1497.0275              1518.8591              1528.0836
 Red. masses --      2.7801                 2.6609                 1.0500
 Frc consts  --      3.6709                 3.6167                 1.4445
 IR Inten    --    193.5822                13.8812                11.0155

                     79                     80                     81
                      A                      A                      A
 Frequencies --   1528.8312              1530.8926              1531.7302
 Red. masses --      1.0714                 1.0554                 1.0425
 Frc consts  --      1.4754                 1.4573                 1.4411
 IR Inten    --      4.6060                13.9753                 6.1050

                     82                     83                     84
                      A                      A                      A
 Frequencies --   1533.1464              1533.2470              1535.8154
 Red. masses --      2.3267                 1.4811                 1.0396
 Frc consts  --      3.2222                 2.0515                 1.4447
 IR Inten    --    286.1496               100.6968                 5.3146

                     85                     86                     87
                      A                      A                      A
 Frequencies --   1652.8802              1667.7974              3052.6945
 Red. masses --      6.8510                 7.3413                 1.0578
 Frc consts  --     11.0278                12.0313                 5.8077
 IR Inten    --      6.6679                 0.1518                 4.6565

                     88                     89                     90
                      A                      A                      A
 Frequencies --   3054.7211              3058.3043              3059.1504
 Red. masses --      1.0559                 1.0359                 1.0357
 Frc consts  --      5.8050                 5.7083                 5.7104
 IR Inten    --      1.8243                19.6551                23.7218

                     91                     92                     93
                      A                      A                      A
 Frequencies --   3060.2823              3064.3508              3096.3004
 Red. masses --      1.0408                 1.0602                 1.1040
 Frc consts  --      5.7431                 5.8654                 6.2359
 IR Inten    --     34.3490                 6.1538                 2.2303

                     94                     95                     96
                      A                      A                      A
 Frequencies --   3100.2927              3101.8420              3122.6993
 Red. masses --      1.1029                 1.1025                 1.1018
 Frc consts  --      6.2457                 6.2500                 6.3300
 IR Inten    --      5.3768                 0.6430                20.8691

                     97                     98                     99
                      A                      A                      A
 Frequencies --   3124.6571              3125.6583              3132.4629
 Red. masses --      1.1027                 1.1022                 1.1032
 Frc consts  --      6.3433                 6.3446                 6.3777
 IR Inten    --      8.2624                32.1254                15.4965

                    100                    101                    102
                      A                      A                      A
 Frequencies --   3134.2362              3135.8667              3187.7635
 Red. masses --      1.1033                 1.1036                 1.0858
 Frc consts  --      6.3860                 6.3938                 6.5011
 IR Inten    --     37.5671                17.8966                 4.3499

                    103                    104                    105
                      A                      A                      A
 Frequencies --   3202.6277              3218.1729              3222.3618
 Red. masses --      1.0905                 1.0939                 1.0952
 Frc consts  --      6.5900                 6.6749                 6.7005
 IR Inten    --     22.3272                19.3236                14.4156

 - Thermochemistry -
 -------------------
 Temperature   298.150 Kelvin.  Pressure   1.00000 Atm.
 Atom     1 has atomic number 79 and mass 196.96660

 Molecular mass:   465.05910 amu.
 Principal axes and moments of inertia in atomic units:
                           1         2         3
     Eigenvalues --  3483.49973********************
           X            0.99996   0.00910  -0.00213
           Y           -0.00909   0.99996   0.00269
           Z            0.00216  -0.00267   0.99999
 This molecule is an asymmetric top.
 Rotational symmetry number  1.
 Warning -- assumption of classical behavior for rotation
           may cause significant error
 Rotational temperatures (Kelvin)      0.02486     0.00611     0.00544
 Rotational constants (GHZ):           0.51808     0.12737     0.11343
 Zero-point vibrational energy     786571.9 (Joules/Mol)
                                  187.99520 (Kcal/Mol)
 Warning -- explicit consideration of  31 degrees of freedom as
           vibrations may cause significant error
 Vibrational temperatures:     21.78    25.86    37.82    68.95    77.69
          (Kelvin)             87.60   109.50   125.34   159.44   163.45
                              195.52   205.67   253.01   261.68   271.84
                              329.81   358.25   366.79   366.95   389.02
                              451.21   453.86   495.86   545.08   598.38
                              626.14   629.68   728.92   845.33   871.67
                              889.65   910.26   972.00   985.33  1002.25
                             1079.61  1090.20  1101.36  1109.67  1132.13
                             1193.51  1244.95  1296.90  1327.90  1331.47
                             1393.12  1429.65  1432.74  1436.18  1451.84
                             1471.30  1487.21  1500.77  1541.44  1552.35
                             1560.34  1593.01  1642.65  1697.99  1785.37
                             1841.28  1842.91  1846.38  1858.45  1881.11
                             1887.56  1896.86  1901.81  2013.70  2076.82
                             2078.69  2079.83  2143.05  2144.73  2150.15
                             2153.89  2185.30  2198.57  2199.64  2202.61
                             2203.82  2205.85  2206.00  2209.69  2378.12
                             2399.59  4392.14  4395.06  4400.21  4401.43
                             4403.06  4408.91  4454.88  4460.62  4462.85
                             4492.86  4495.68  4497.12  4506.91  4509.46
                             4511.81  4586.47  4607.86  4630.23  4636.25

 Zero-point correction=                           0.299589 (Hartree/Particle)
 Thermal correction to Energy=                    0.320966
 Thermal correction to Enthalpy=                  0.321910
 Thermal correction to Gibbs Free Energy=         0.244432
 Sum of electronic and zero-point Energies=          -1511.598343
 Sum of electronic and thermal Energies=             -1511.576966
 Sum of electronic and thermal Enthalpies=           -1511.576022
 Sum of electronic and thermal Free Energies=        -1511.653501

                     E (Thermal)             CV                S
                      KCal/Mol        Cal/Mol-Kelvin    Cal/Mol-Kelvin
 Total                  201.409             75.711            163.068
 Electronic               0.000              0.000              0.000
 Translational            0.889              2.981             44.300
 Rotational               0.889              2.981             35.017
 Vibrational            199.632             69.749             83.751
 Vibration     1          0.593              1.986              7.188
 Vibration     2          0.593              1.986              6.846
 Vibration     3          0.593              1.985              6.092
 Vibration     4          0.595              1.978              4.901
 Vibration     5          0.596              1.976              4.665
 Vibration     6          0.597              1.973              4.428
 Vibration     7          0.599              1.965              3.989
 Vibration     8          0.601              1.958              3.724
 Vibration     9          0.607              1.941              3.255
 Vibration    10          0.607              1.938              3.206
 Vibration    11          0.614              1.917              2.861
 Vibration    12          0.616              1.910              2.764
 Vibration    13          0.628              1.872              2.372
 Vibration    14          0.630              1.864              2.309
 Vibration    15          0.633              1.855              2.238
 Vibration    16          0.652              1.796              1.885
 Vibration    17          0.662              1.764              1.738
 Vibration    18          0.665              1.754              1.696
 Vibration    19          0.665              1.754              1.695
 Vibration    20          0.674              1.728              1.594
 Vibration    21          0.701              1.648              1.343
 Vibration    22          0.703              1.644              1.334
 Vibration    23          0.723              1.586              1.191
 Vibration    24          0.749              1.515              1.044
 Vibration    25          0.779              1.436              0.906
 Vibration    26          0.796              1.394              0.842
 Vibration    27          0.798              1.388              0.834
 Vibration    28          0.862              1.235              0.642
 Vibration    29          0.945              1.058              0.472
 Vibration    30          0.964              1.019              0.440
 Vibration    31          0.978              0.993              0.419

 Normal termination of Gaussian 09 at Tue May  2 07:43:40 2023.
