 Gaussian 09, Revision D.01,
 Gaussian 09:  EM64L-G09RevD.01 24-Apr-2013

 ----------------------------------------
 # opt freq=noraman b3lyp/gen pseudo=read
 ----------------------------------------

 -------------------
 Title Card Required
 -------------------
 Symbolic Z-matrix:
 Charge =  0 Multiplicity = 1

 SCF Done:  E(RB3LYP) =  -1569.11832326     A.U. after   14 cycles
 SCF Done:  E(RB3LYP) =  -1569.12024833     A.U. after   12 cycles
 SCF Done:  E(RB3LYP) =  -1569.11421983     A.U. after   13 cycles
 SCF Done:  E(RB3LYP) =  -1569.12146647     A.U. after   10 cycles
 SCF Done:  E(RB3LYP) =  -1569.12164400     A.U. after   11 cycles
 SCF Done:  E(RB3LYP) =  -1569.11842782     A.U. after   13 cycles
 SCF Done:  E(RB3LYP) =  -1569.12182628     A.U. after   10 cycles
 SCF Done:  E(RB3LYP) =  -1569.12169506     A.U. after   11 cycles
 SCF Done:  E(RB3LYP) =  -1569.12212095     A.U. after   11 cycles
 SCF Done:  E(RB3LYP) =  -1569.12211808     A.U. after   11 cycles
 SCF Done:  E(RB3LYP) =  -1569.12214767     A.U. after   10 cycles
 SCF Done:  E(RB3LYP) =  -1569.12216040     A.U. after   10 cycles
 SCF Done:  E(RB3LYP) =  -1569.12216946     A.U. after   10 cycles
 SCF Done:  E(RB3LYP) =  -1569.12217110     A.U. after    8 cycles
 SCF Done:  E(RB3LYP) =  -1569.12216752     A.U. after    9 cycles
 SCF Done:  E(RB3LYP) =  -1569.12216866     A.U. after    8 cycles
 SCF Done:  E(RB3LYP) =  -1569.12216978     A.U. after    8 cycles
 SCF Done:  E(RB3LYP) =  -1569.12216985     A.U. after    6 cycles
 Optimization completed.
    -- Stationary point found.
 Normal termination of Gaussian 09 at Mon Apr 17 09:24:04 2023.

 ------------------------------------------------------------------
 #N Geom=AllCheck Guess=TCheck SCRF=Check GenChk RB3LYP/ChkBas Freq
 ------------------------------------------------------------------

 Structure from the checkpoint file:  "/home/scr/helius/Gau-25496.chk"
 -------------------
 Title Card Required
 -------------------
 Charge =  0 Multiplicity = 1

                         Standard orientation:
 ---------------------------------------------------------------------
 Center     Atomic      Atomic             Coordinates (Angstroms)
 Number     Number       Type             X           Y           Z
 ---------------------------------------------------------------------
      1         79           0       -0.401920   -0.171014   -0.520283
      2         16           0        1.817980   -0.074733   -1.219417
      3         15           0       -2.610504   -0.237546    0.151740
      4          6           0       -3.753365    0.623665   -1.035654
      5          6           0       -5.235439    0.707589   -0.647628
      6          6           0       -3.334450   -1.935423    0.357006
      7          6           0       -2.487232   -2.865689    1.236427
      8          6           0       -2.875642    0.583073    1.795737
      9          6           0       -2.399378    2.041622    1.838274
     10          1           0       -3.334938    1.625408   -1.187044
     11          1           0       -3.632611    0.103040   -1.993638
     12          1           0       -5.796408    1.232881   -1.428648
     13          1           0       -5.382899    1.258583    0.287294
     14          1           0       -5.686011   -0.283506   -0.531275
     15          1           0       -4.350513   -1.840566    0.759968
     16          1           0       -3.425182   -2.353805   -0.653154
     17          1           0       -2.947029   -3.858770    1.285766
     18          1           0       -2.401287   -2.491140    2.262111
     19          1           0       -1.475544   -2.977578    0.833441
     20          1           0       -2.319889   -0.012462    2.529015
     21          1           0       -3.937878    0.506375    2.059816
     22          1           0       -1.332835    2.116044    1.601669
     23          1           0       -2.556881    2.459227    2.838808
     24          1           0       -2.949658    2.669310    1.128297
     25          6           0        2.722071    0.595299    0.276042
     26          1           0        2.274703    0.173896    1.177154
     27          6           0        4.191115    0.175132    0.191024
     28          1           0        4.599304    0.353302   -0.806126
     29          6           0        2.593937    2.101020    0.296607
     30          8           0        3.408447    2.890069   -0.132049
     31          8           0        1.432401    2.515752    0.874979
     32          1           0        1.434305    3.487334    0.784893
     33          1           0        4.790347    0.779706    0.886646
     34          6           0        4.379989   -1.273404    0.589730
     35          8           0        3.736714   -1.866341    1.428903
     36          8           0        5.417413   -1.844548   -0.067142
     37          1           0        5.483018   -2.755026    0.278977
 ---------------------------------------------------------------------

 SCF Done:  E(RB3LYP) =  -1569.12216985     A.U. after    1 cycles

 The electronic state is 1-A.
 Alpha  occ. eigenvalues --  -88.81200 -77.11997 -19.17990 -19.17749 -19.12311
 Alpha  occ. eigenvalues --  -19.12227 -10.30494 -10.30456 -10.21481 -10.21390
 Alpha  occ. eigenvalues --  -10.21348 -10.20778 -10.20206 -10.19306 -10.19245
 Alpha  occ. eigenvalues --  -10.18372  -7.88749  -6.59977  -5.85198  -5.84688
 Alpha  occ. eigenvalues --   -5.84262  -4.76128  -4.76116  -4.75879  -4.16009
 Alpha  occ. eigenvalues --   -2.30652  -2.28590  -2.28420  -1.09228  -1.09146
 Alpha  occ. eigenvalues --   -1.00075  -1.00008  -0.82279  -0.80150  -0.78204
 Alpha  occ. eigenvalues --   -0.77972  -0.70865  -0.69102  -0.65042  -0.64151
 Alpha  occ. eigenvalues --   -0.64029  -0.60470  -0.56443  -0.54503  -0.50243
 Alpha  occ. eigenvalues --   -0.49235  -0.47803  -0.47498  -0.47099  -0.46791
 Alpha  occ. eigenvalues --   -0.45973  -0.45869  -0.44599  -0.44336  -0.43282
 Alpha  occ. eigenvalues --   -0.42759  -0.40858  -0.40263  -0.39759  -0.39585
 Alpha  occ. eigenvalues --   -0.38923  -0.38781  -0.38254  -0.37271  -0.37141
 Alpha  occ. eigenvalues --   -0.36977  -0.36624  -0.34716  -0.34675  -0.32753
 Alpha  occ. eigenvalues --   -0.31791  -0.30841  -0.30382  -0.29508  -0.29469
 Alpha  occ. eigenvalues --   -0.29222  -0.26869  -0.26695  -0.26091  -0.23514
 Alpha  occ. eigenvalues --   -0.19371
 Alpha virt. eigenvalues --   -0.02243  -0.01036   0.01571   0.02018   0.02455
 Alpha virt. eigenvalues --    0.03656   0.04981   0.05470   0.07699   0.08468
 Alpha virt. eigenvalues --    0.08964   0.09229   0.09664   0.10066   0.11082

 Mulliken charges:
               1
     1  Au  -0.123639
     2  S   -0.148511
     3  P    0.477439
     4  C   -0.455467
     5  C   -0.455784
     6  C   -0.446959
     7  C   -0.469322
     8  C   -0.444125
     9  C   -0.478364
    10  H    0.195447
    11  H    0.193006
    12  H    0.166679
    13  H    0.159025
    14  H    0.158673
    15  H    0.168828
    16  H    0.184709
    17  H    0.161077
    18  H    0.158515
    19  H    0.210374
    20  H    0.190694
    21  H    0.168230
    22  H    0.215625
    23  H    0.159968
    24  H    0.153758
    25  C   -0.324242
    26  H    0.221324
    27  C   -0.350746
    28  H    0.203753
    29  C    0.583850
    30  O   -0.431415
    31  O   -0.575220
    32  H    0.412046
    33  H    0.185535
    34  C    0.566396
    35  O   -0.430082
    36  O   -0.571629
    37  H    0.410559
 Sum of Mulliken charges =   0.00000

 Dipole moment (field-independent basis, Debye):
    X=             -8.6819    Y=             -0.3588    Z=              2.8145  Tot=              9.1338
 Quadrupole moment (field-independent basis, Debye-Ang):
   XX=           -117.4485   YY=           -129.0424   ZZ=           -137.3773
   XY=             -6.9992   XZ=              4.2824   YZ=              4.9526

  Exact polarizability: 254.893   3.667 180.284  -8.660   1.147 153.941
 Approx polarizability: 337.977  13.525 267.936 -23.640   1.160 262.523

                      1                      2                      3
                      A                      A                      A
 Frequencies --     11.4792                17.6523                31.6618
 Red. masses --      4.4242                 7.1928                 5.7998
 Frc consts  --      0.0003                 0.0013                 0.0034
 IR Inten    --      0.1333                 1.0574                 0.9733

                      4                      5                      6
                      A                      A                      A
 Frequencies --     39.6786                46.2039                58.6962
 Red. masses --      6.4831                 8.0292                 3.2070
 Frc consts  --      0.0060                 0.0101                 0.0065
 IR Inten    --      1.0516                 0.6115                 0.8490

                      7                      8                      9
                      A                      A                      A
 Frequencies --     61.4868                65.2223                68.8235
 Red. masses --      5.1572                 4.5710                 2.7191
 Frc consts  --      0.0115                 0.0115                 0.0076
 IR Inten    --      0.7034                 1.5958                 0.1229

                     10                     11                     12
                      A                      A                      A
 Frequencies --     81.0268                93.4343               117.6061
 Red. masses --      5.5650                 2.3589                 4.2055
 Frc consts  --      0.0215                 0.0121                 0.0343
 IR Inten    --      1.4149                 0.4095                 0.7455

                     13                     14                     15
                      A                      A                      A
 Frequencies --    125.7668               146.3521               153.9855
 Red. masses --      3.6306                 2.9133                 4.2404
 Frc consts  --      0.0338                 0.0368                 0.0592
 IR Inten    --      0.5312                 0.0513                 0.6478

                     16                     17                     18
                      A                      A                      A
 Frequencies --    172.6299               193.6052               197.2222
 Red. masses --      2.3759                 1.5831                 4.1536
 Frc consts  --      0.0417                 0.0350                 0.0952
 IR Inten    --      1.5429                 0.6450                 2.3431

                     19                     20                     21
                      A                      A                      A
 Frequencies --    226.3494               241.9326               251.5040
 Red. masses --      2.0955                 3.1030                 1.5723
 Frc consts  --      0.0633                 0.1070                 0.0586
 IR Inten    --      0.7746                 7.3053                 0.2647

                     22                     23                     24
                      A                      A                      A
 Frequencies --    262.3544               269.6326               271.1039
 Red. masses --      1.4218                 1.9366                 6.0768
 Frc consts  --      0.0577                 0.0830                 0.2631
 IR Inten    --      0.0346                 0.2740                 0.5882

                     25                     26                     27
                      A                      A                      A
 Frequencies --    315.3266               358.4986               381.7207
 Red. masses --      2.8646                 8.7792                 3.5191
 Frc consts  --      0.1678                 0.6648                 0.3021
 IR Inten    --      0.6036                 2.1700                 2.4495

                     28                     29                     30
                      A                      A                      A
 Frequencies --    385.3845               434.3396               498.1666
 Red. masses --      5.8852                 3.5157                 2.7406
 Frc consts  --      0.5150                 0.3908                 0.4007
 IR Inten    --      9.3944                 9.3804                14.8818

                     31                     32                     33
                      A                      A                      A
 Frequencies --    557.4604               575.3712               611.5672
 Red. masses --      2.3433                 2.2875                 2.8333
 Frc consts  --      0.4290                 0.4462                 0.6244
 IR Inten    --     34.8561                82.5781                36.2286

                     34                     35                     36
                      A                      A                      A
 Frequencies --    617.5044               658.0454               661.2484
 Red. masses --      3.3532                 3.3676                 1.9725
 Frc consts  --      0.7533                 0.8592                 0.5081
 IR Inten    --     10.8764                21.2053               103.4527

                     37                     38                     39
                      A                      A                      A
 Frequencies --    672.0068               694.5443               711.8849
 Red. masses --      2.6549                 3.2864                 1.8196
 Frc consts  --      0.7064                 0.9340                 0.5433
 IR Inten    --      3.7393                11.0115                42.8454

                     40                     41                     42
                      A                      A                      A
 Frequencies --    749.0665               771.2772               787.1442
 Red. masses --      1.4719                 1.2990                 4.1969
 Frc consts  --      0.4866                 0.4553                 1.5321
 IR Inten    --     35.2121                14.9866                39.2927

                     43                     44                     45
                      A                      A                      A
 Frequencies --    789.8805               882.6139               936.3093
 Red. masses --      1.3333                 4.8165                 2.7081
 Frc consts  --      0.4901                 2.2107                 1.3988
 IR Inten    --     40.9440                 3.4482                 8.6975

                     46                     47                     48
                      A                      A                      A
 Frequencies --    983.9761               993.7393               995.9022
 Red. masses --      2.6790                 1.7422                 1.5759
 Frc consts  --      1.5283                 1.0137                 0.9209
 IR Inten    --     18.0439                 0.5556                 0.2945

                     49                     50                     51
                      A                      A                      A
 Frequencies --    997.5761              1009.5864              1022.8637
 Red. masses --      1.6422                 1.5122                 1.3330
 Frc consts  --      0.9629                 0.9081                 0.8217
 IR Inten    --      0.6071                 5.4748                 1.3316

                     52                     53                     54
                      A                      A                      A
 Frequencies --   1043.5539              1072.7729              1079.0451
 Red. masses --      1.6185                 1.5631                 1.7735
 Frc consts  --      1.0385                 1.0599                 1.2167
 IR Inten    --      5.5792                42.0151                29.9679

                     55                     56                     57
                      A                      A                      A
 Frequencies --   1083.0380              1084.5287              1148.9112
 Red. masses --      3.7059                 1.8269                 1.8665
 Frc consts  --      2.5611                 1.2660                 1.4516
 IR Inten    --      6.9666                12.8860               325.0712

                     58                     59                     60
                      A                      A                      A
 Frequencies --   1170.0706              1208.6806              1267.7796
 Red. masses --      1.7146                 1.5894                 1.2820
 Frc consts  --      1.3830                 1.3681                 1.2140
 IR Inten    --     13.9683                84.6727                77.6279

                     61                     62                     63
                      A                      A                      A
 Frequencies --   1280.9533              1282.7237              1290.8120
 Red. masses --      1.2317                 1.2393                 1.2276
 Frc consts  --      1.1907                 1.2014                 1.2051
 IR Inten    --      0.9971                 0.6220                11.7083

                     64                     65                     66
                      A                      A                      A
 Frequencies --   1292.2222              1306.7827              1311.6746
 Red. masses --      1.2057                 1.3874                 1.3753
 Frc consts  --      1.1862                 1.3959                 1.3941
 IR Inten    --     16.9099                 1.9361                13.9402

                     67                     68                     69
                      A                      A                      A
 Frequencies --   1320.9997              1335.3100              1393.4658
 Red. masses --      1.3827                 1.5733                 2.4830
 Frc consts  --      1.4216                 1.6529                 2.8407
 IR Inten    --      0.8234                 2.0700               131.0808

                     70                     71                     72
                      A                      A                      A
 Frequencies --   1441.2297              1442.7837              1445.9802
 Red. masses --      2.1436                 1.2073                 1.2022
 Frc consts  --      2.6233                 1.4807                 1.4810
 IR Inten    --     23.3693                 1.0713                 2.2222

                     73                     74                     75
                      A                      A                      A
 Frequencies --   1449.5590              1488.0236              1489.2955
 Red. masses --      1.1987                 1.0855                 1.0808
 Frc consts  --      1.4840                 1.4161                 1.4123
 IR Inten    --      2.0718                14.0231                 5.0451

                     76                     77                     78
                      A                      A                      A
 Frequencies --   1490.2533              1495.5242              1529.2963
 Red. masses --      1.0830                 1.0847                 1.0433
 Frc consts  --      1.4171                 1.4294                 1.4377
 IR Inten    --      4.5254                 7.6569                 8.4390

                     79                     80                     81
                      A                      A                      A
 Frequencies --   1529.5467              1531.6449              1533.4837
 Red. masses --      1.0445                 1.0419                 1.0378
 Frc consts  --      1.4398                 1.4401                 1.4379
 IR Inten    --      5.4846                 4.4287                 8.2571

                     82                     83                     84
                      A                      A                      A
 Frequencies --   1536.4489              1536.9145              1836.6829
 Red. masses --      1.0403                 1.0473                 9.6820
 Frc consts  --      1.4470                 1.4576                19.2435
 IR Inten    --      4.9081                 3.2559               454.6580

                     85                     86                     87
                      A                      A                      A
 Frequencies --   1845.4984              3049.8094              3049.8644
 Red. masses --      9.5078                 1.0616                 1.0668
 Frc consts  --     19.0791                 5.8177                 5.8466
 IR Inten    --    100.7169                22.2529                 2.8125

                     88                     89                     90
                      A                      A                      A
 Frequencies --   3054.3870              3055.2436              3058.4728
 Red. masses --      1.0365                 1.0538                 1.0359
 Frc consts  --      5.6973                 5.7957                 5.7091
 IR Inten    --     19.3705                 2.8270                24.8284

                     91                     92                     93
                      A                      A                      A
 Frequencies --   3060.1212              3062.6973              3093.3459
 Red. masses --      1.0415                 1.0607                 1.1041
 Frc consts  --      5.7460                 5.8623                 6.2247
 IR Inten    --     37.1690                 4.9350                 4.3065

                     94                     95                     96
                      A                      A                      A
 Frequencies --   3098.9428              3100.9955              3119.7411
 Red. masses --      1.1027                 1.1023                 1.1022
 Frc consts  --      6.2392                 6.2451                 6.3205
 IR Inten    --      4.8711                 2.6241                26.4472

                     97                     98                     99
                      A                      A                      A
 Frequencies --   3121.5025              3123.6406              3133.0562
 Red. masses --      1.1017                 1.1023                 1.1029
 Frc consts  --      6.3246                 6.3367                 6.3786
 IR Inten    --     13.1400                28.6281                16.1013

                    100                    101                    102
                      A                      A                      A
 Frequencies --   3134.5930              3134.9830              3135.8314
 Red. masses --      1.0878                 1.1032                 1.1035
 Frc consts  --      6.2975                 6.3881                 6.3932
 IR Inten    --      1.2022                30.3271                12.9464

                    103                    104                    105
                      A                      A                      A
 Frequencies --   3147.1817              3677.9486              3683.1871
 Red. masses --      1.0892                 1.0637                 1.0639
 Frc consts  --      6.3561                 8.4780                 8.5032
 IR Inten    --      1.1374                44.4474                46.7473

 - Thermochemistry -
 -------------------
 Temperature   298.150 Kelvin.  Pressure   1.00000 Atm.
 Atom     1 has atomic number 79 and mass 196.96660

 Molecular mass:   464.04859 amu.
 Principal axes and moments of inertia in atomic units:
                           1         2         3
     Eigenvalues --  3686.56795********************
           X            0.99997  -0.00311  -0.00737
           Y            0.00307   0.99998  -0.00546
           Z            0.00738   0.00544   0.99996
 This molecule is an asymmetric top.
 Rotational symmetry number  1.
 Warning -- assumption of classical behavior for rotation
           may cause significant error
 Rotational temperatures (Kelvin)      0.02349     0.00726     0.00646
 Rotational constants (GHZ):           0.48955     0.15117     0.13462
 Zero-point vibrational energy     789233.0 (Joules/Mol)
                                  188.63121 (Kcal/Mol)
 Warning -- explicit consideration of  34 degrees of freedom as
           vibrations may cause significant error
 Vibrational temperatures:     16.52    25.40    45.55    57.09    66.48
          (Kelvin)             84.45    88.47    93.84    99.02   116.58
                              134.43   169.21   180.95   210.57   221.55
                              248.38   278.55   283.76   325.67   348.09
                              361.86   377.47   387.94   390.06   453.68
                              515.80   549.21   554.48   624.92   716.75
                              802.06   827.83   879.91   888.45   946.78
                              951.39   966.87   999.29  1024.24  1077.74
                             1109.69  1132.52  1136.46  1269.88  1347.14
                             1415.72  1429.77  1432.88  1435.29  1452.57
                             1471.67  1501.44  1543.48  1552.50  1558.25
                             1560.39  1653.02  1683.47  1739.02  1824.05
                             1843.00  1845.55  1857.19  1859.22  1880.17
                             1887.20  1900.62  1921.21  2004.88  2073.61
                             2075.84  2080.44  2085.59  2140.93  2142.76
                             2144.14  2151.72  2200.31  2200.67  2203.69
                             2206.34  2210.60  2211.27  2642.57  2655.26
                             4387.99  4388.07  4394.58  4395.81  4400.45
                             4402.83  4406.53  4450.63  4458.68  4461.64
                             4488.61  4491.14  4494.22  4507.76  4509.97
                             4510.54  4511.76  4528.09  5291.74  5299.28

 Zero-point correction=                           0.300603 (Hartree/Particle)
 Thermal correction to Energy=                    0.324108
 Thermal correction to Enthalpy=                  0.325052
 Thermal correction to Gibbs Free Energy=         0.241813
 Sum of electronic and zero-point Energies=          -1568.821567
 Sum of electronic and thermal Energies=             -1568.798062
 Sum of electronic and thermal Enthalpies=           -1568.797118
 Sum of electronic and thermal Free Energies=        -1568.880357

                     E (Thermal)             CV                S
                      KCal/Mol        Cal/Mol-Kelvin    Cal/Mol-Kelvin
 Total                  203.381             79.639            175.191
 Electronic               0.000              0.000              0.000
 Translational            0.889              2.981             44.293
 Rotational               0.889              2.981             34.733
 Vibrational            201.603             73.678             96.165
 Vibration     1          0.593              1.987              7.737
 Vibration     2          0.593              1.986              6.882
 Vibration     3          0.594              1.983              5.722
 Vibration     4          0.594              1.981              5.275
 Vibration     5          0.595              1.979              4.974
 Vibration     6          0.596              1.974              4.501
 Vibration     7          0.597              1.973              4.409
 Vibration     8          0.597              1.971              4.293
 Vibration     9          0.598              1.969              4.187
 Vibration    10          0.600              1.962              3.866
 Vibration    11          0.602              1.954              3.587
 Vibration    12          0.608              1.935              3.139
 Vibration    13          0.611              1.927              3.010
 Vibration    14          0.617              1.907              2.719
 Vibration    15          0.620              1.898              2.622
 Vibration    16          0.626              1.876              2.407
 Vibration    17          0.635              1.849              2.193
 Vibration    18          0.637              1.844              2.159
 Vibration    19          0.650              1.801              1.908
 Vibration    20          0.658              1.776              1.789
 Vibration    21          0.663              1.760              1.720
 Vibration    22          0.670              1.742              1.646
 Vibration    23          0.674              1.729              1.599
 Vibration    24          0.675              1.726              1.589
 Vibration    25          0.703              1.644              1.334
 Vibration    26          0.733              1.558              1.129
 Vibration    27          0.751              1.509              1.032
 Vibration    28          0.754              1.501              1.018
 Vibration    29          0.795              1.395              0.845
 Vibration    30          0.854              1.254              0.663
 Vibration    31          0.913              1.123              0.529
 Vibration    32          0.932              1.085              0.494
 Vibration    33          0.971              1.007              0.430
 Vibration    34          0.977              0.995              0.421

 Normal termination of Gaussian 09 at Mon Apr 17 09:30:00 2023.
