 Gaussian 09, Revision D.01,
 Gaussian 09:  EM64L-G09RevD.01 24-Apr-2013

 ----------------------------------------
 # opt freq=noraman b3lyp/gen pseudo=read
 ----------------------------------------

 --
 af
 --
 Symbolic Z-matrix:
 Charge =  0 Multiplicity = 1

 SCF Done:  E(RB3LYP) =  -1478.57810920     A.U. after   13 cycles
 SCF Done:  E(RB3LYP) =  -1478.57903319     A.U. after   11 cycles
 SCF Done:  E(RB3LYP) =  -1478.57767830     A.U. after   11 cycles
 SCF Done:  E(RB3LYP) =  -1478.57979024     A.U. after    9 cycles
 SCF Done:  E(RB3LYP) =  -1478.57927431     A.U. after   11 cycles
 SCF Done:  E(RB3LYP) =  -1478.57976940     A.U. after   11 cycles
 SCF Done:  E(RB3LYP) =  -1478.58005675     A.U. after    9 cycles
 SCF Done:  E(RB3LYP) =  -1478.58010092     A.U. after    9 cycles
 SCF Done:  E(RB3LYP) =  -1478.58008258     A.U. after   11 cycles
 SCF Done:  E(RB3LYP) =  -1478.58017578     A.U. after    9 cycles
 SCF Done:  E(RB3LYP) =  -1478.58024487     A.U. after    8 cycles
 SCF Done:  E(RB3LYP) =  -1478.58025599     A.U. after    9 cycles
 SCF Done:  E(RB3LYP) =  -1478.58026473     A.U. after    9 cycles
 SCF Done:  E(RB3LYP) =  -1478.58026512     A.U. after    9 cycles
 SCF Done:  E(RB3LYP) =  -1478.58026675     A.U. after    9 cycles
 SCF Done:  E(RB3LYP) =  -1478.58026651     A.U. after    7 cycles
 SCF Done:  E(RB3LYP) =  -1478.58026649     A.U. after    6 cycles
 SCF Done:  E(RB3LYP) =  -1478.58026672     A.U. after    6 cycles
 SCF Done:  E(RB3LYP) =  -1478.58026674     A.U. after    6 cycles
 Optimization completed.
    -- Stationary point found.
 Normal termination of Gaussian 09 at Mon Apr 24 08:38:17 2023.

 ------------------------------------------------------------------
 #N Geom=AllCheck Guess=TCheck SCRF=Check GenChk RB3LYP/ChkBas Freq
 ------------------------------------------------------------------

 Structure from the checkpoint file:  "/home/scr/helius/Gau-10438.chk"
 --
 af
 --
 Charge =  0 Multiplicity = 1

                         Standard orientation:
 ---------------------------------------------------------------------
 Center     Atomic      Atomic             Coordinates (Angstroms)
 Number     Number       Type             X           Y           Z
 ---------------------------------------------------------------------
      1         79           0        1.140624   -0.550182   -0.200211
      2         16           0       -0.892009   -1.632897   -0.491501
      3         15           0        3.226896    0.419456    0.055955
      4          6           0        3.907408    1.217434   -1.478268
      5          6           0        2.963293    2.253432   -2.103657
      6          6           0        3.299345    1.765731    1.332803
      7          6           0        2.889806    1.308069    2.739125
      8          6           0        4.523962   -0.816865    0.552744
      9          6           0        5.942520   -0.285784    0.796985
     10          1           0        4.878102    1.671480   -1.243272
     11          1           0        4.093473    0.402909   -2.189035
     12          1           0        3.401002    2.657105   -3.023221
     13          1           0        2.779447    3.096519   -1.428810
     14          1           0        1.997002    1.804271   -2.355186
     15          1           0        4.310061    2.193278    1.338245
     16          1           0        2.621692    2.553982    0.985088
     17          1           0        2.901138    2.156953    3.431449
     18          1           0        3.572997    0.549174    3.135935
     19          1           0        1.880352    0.883848    2.738538
     20          1           0        4.525405   -1.577297   -0.237749
     21          1           0        4.138393   -1.319039    1.447592
     22          1           0        6.365763    0.182035   -0.098010
     23          1           0        6.606300   -1.110063    1.080894
     24          1           0        5.969494    0.449705    1.608017
     25          6           0       -2.171539   -0.364245   -0.041590
     26          6           0       -3.561431   -0.994976   -0.179741
     27          1           0       -2.066076    0.502106   -0.700058
     28          1           0       -2.031821   -0.031398    0.990156
     29          1           0       -3.707390   -1.352648   -1.216624
     30          1           0       -3.601062   -1.878812    0.466991
     31          7           0       -4.633894   -0.087619    0.239269
     32          6           0       -4.924452    0.954530   -0.746813
     33          6           0       -5.994541    1.900470   -0.204541
     34          1           0       -5.276178    0.519764   -1.704369
     35          1           0       -4.013630    1.525544   -0.957669
     36          1           0       -5.600509    2.427463    0.680534
     37          6           0       -5.867705   -0.801723    0.571048
     38          1           0       -6.283188   -1.339606   -0.304668
     39          1           0       -5.651118   -1.545855    1.347295
     40          6           0       -6.913739    0.184190    1.087953
     41          1           0       -7.864900   -0.322936    1.278205
     42          1           0       -6.556325    0.633838    2.029376
     43          8           0       -7.184356    1.202120    0.133829
     44          1           0       -6.274452    2.641372   -0.960068
 ---------------------------------------------------------------------

 SCF Done:  E(RB3LYP) =  -1478.58026674     A.U. after    1 cycles

 The electronic state is 1-A.
 Alpha  occ. eigenvalues --  -88.79790 -77.11765 -19.12847 -14.30779 -10.21305
 Alpha  occ. eigenvalues --  -10.21296 -10.21222 -10.21084 -10.21020 -10.20080
 Alpha  occ. eigenvalues --  -10.19429 -10.19309 -10.18855 -10.18827 -10.18355
 Alpha  occ. eigenvalues --  -10.17548  -7.87406  -6.59739  -5.83795  -5.83380
 Alpha  occ. eigenvalues --   -5.82940  -4.75895  -4.75880  -4.75634  -4.15704
 Alpha  occ. eigenvalues --   -2.30318  -2.28282  -2.28111  -1.02111  -0.90596
 Alpha  occ. eigenvalues --   -0.82173  -0.78102  -0.77946  -0.75744  -0.75414
 Alpha  occ. eigenvalues --   -0.69070  -0.68417  -0.64966  -0.64005  -0.63845
 Alpha  occ. eigenvalues --   -0.61993  -0.56727  -0.55764  -0.54913  -0.49165
 Alpha  occ. eigenvalues --   -0.48749  -0.47670  -0.47408  -0.46240  -0.45851
 Alpha  occ. eigenvalues --   -0.45647  -0.45070  -0.44230  -0.43244  -0.43009
 Alpha  occ. eigenvalues --   -0.40921  -0.40779  -0.40509  -0.39761  -0.39735
 Alpha  occ. eigenvalues --   -0.38732  -0.38400  -0.37992  -0.37245  -0.37097
 Alpha  occ. eigenvalues --   -0.35960  -0.34794  -0.34579  -0.34391  -0.34215
 Alpha  occ. eigenvalues --   -0.32629  -0.32122  -0.31187  -0.29521  -0.29169
 Alpha  occ. eigenvalues --   -0.29154  -0.28266  -0.26674  -0.24141  -0.22580
 Alpha  occ. eigenvalues --   -0.20320  -0.18076
 Alpha virt. eigenvalues --   -0.02019  -0.00826   0.02176   0.03590   0.05245
 Alpha virt. eigenvalues --    0.05353   0.07621   0.08446   0.08939   0.10014
 Alpha virt. eigenvalues --    0.10328   0.10888   0.11702   0.12062   0.12463

 Mulliken charges:
               1
     1  Au  -0.147031
     2  S   -0.178775
     3  P    0.478805
     4  C   -0.444669
     5  C   -0.469037
     6  C   -0.444108
     7  C   -0.470133
     8  C   -0.455711
     9  C   -0.455748
    10  H    0.167342
    11  H    0.185094
    12  H    0.160870
    13  H    0.155392
    14  H    0.206077
    15  H    0.167817
    16  H    0.187197
    17  H    0.161059
    18  H    0.156744
    19  H    0.203979
    20  H    0.193041
    21  H    0.196132
    22  H    0.158229
    23  H    0.166284
    24  H    0.158317
    25  C   -0.395530
    26  C   -0.120396
    27  H    0.170323
    28  H    0.178336
    29  H    0.130755
    30  H    0.150828
    31  N   -0.385652
    32  C   -0.138966
    33  C   -0.024864
    34  H    0.117131
    35  H    0.137321
    36  H    0.122326
    37  C   -0.134200
    38  H    0.117160
    39  H    0.137196
    40  C   -0.026054
    41  H    0.138079
    42  H    0.123144
    43  O   -0.471504
    44  H    0.137400
 Sum of Mulliken charges =   0.00000

 Dipole moment (field-independent basis, Debye):
    X=              8.3578    Y=              3.8025    Z=              1.3107  Tot=              9.2752
 Quadrupole moment (field-independent basis, Debye-Ang):
   XX=           -126.7911   YY=           -140.9380   ZZ=           -137.3120
   XY=              7.7737   XZ=             -1.2123   YZ=             -3.2394

  Exact polarizability: 297.673  13.893 190.628   2.213  -2.688 182.472
 Approx polarizability: 361.952  22.165 299.805   5.182   1.872 281.606

                      1                      2                      3
                      A                      A                      A
 Frequencies --     10.7550                19.1732                22.1602
 Red. masses --      2.9526                 4.2711                 5.1059
 Frc consts  --      0.0002                 0.0009                 0.0015
 IR Inten    --      0.0677                 0.9071                 0.8266

                      4                      5                      6
                      A                      A                      A
 Frequencies --     46.0417                54.7227                63.1076
 Red. masses --      4.5810                 4.3455                 4.1532
 Frc consts  --      0.0057                 0.0077                 0.0097
 IR Inten    --      0.0679                 0.2451                 3.4391

                      7                      8                      9
                      A                      A                      A
 Frequencies --     63.6535                77.0102                78.1642
 Red. masses --      2.5750                 2.6613                 2.7594
 Frc consts  --      0.0061                 0.0093                 0.0099
 IR Inten    --      0.0207                 0.4188                 0.0779

                     10                     11                     12
                      A                      A                      A
 Frequencies --     92.2408               110.9087               121.9354
 Red. masses --      2.1093                 3.4464                 3.9982
 Frc consts  --      0.0106                 0.0250                 0.0350
 IR Inten    --      0.1098                 0.7902                 0.5818

                     13                     14                     15
                      A                      A                      A
 Frequencies --    135.6316               150.4510               174.0034
 Red. masses --      2.9429                 3.2630                 3.4704
 Frc consts  --      0.0319                 0.0435                 0.0619
 IR Inten    --      0.4754                 0.2601                 2.9496

                     16                     17                     18
                      A                      A                      A
 Frequencies --    181.6554               194.3712               228.8383
 Red. masses --      2.1795                 1.4790                 2.0603
 Frc consts  --      0.0424                 0.0329                 0.0636
 IR Inten    --      0.1999                 0.1966                 0.0453

                     19                     20                     21
                      A                      A                      A
 Frequencies --    238.6747               248.0352               257.7986
 Red. masses --      3.3704                 1.4937                 1.6920
 Frc consts  --      0.1131                 0.0541                 0.0663
 IR Inten    --      3.9861                 0.1322                 0.7395

                     22                     23                     24
                      A                      A                      A
 Frequencies --    259.9629               272.7660               315.6419
 Red. masses --      1.4615                 1.7409                 2.8749
 Frc consts  --      0.0582                 0.0763                 0.1688
 IR Inten    --      0.1932                 0.8333                 0.9198

                     25                     26                     27
                      A                      A                      A
 Frequencies --    337.5449               359.3801               378.1814
 Red. masses --      2.2973                10.4992                 3.5155
 Frc consts  --      0.1542                 0.7989                 0.2962
 IR Inten    --      8.3627                15.5495                 2.7158

                     28                     29                     30
                      A                      A                      A
 Frequencies --    391.1011               433.5488               435.7415
 Red. masses --      3.4184                 3.4309                 2.0669
 Frc consts  --      0.3081                 0.3800                 0.2312
 IR Inten    --     13.4173                 9.0533                 0.7723

                     31                     32                     33
                      A                      A                      A
 Frequencies --    478.2722               494.8753               616.5352
 Red. masses --      7.0022                 2.7304                 3.3992
 Frc consts  --      0.9437                 0.3940                 0.7613
 IR Inten    --      7.5313                 0.7313                11.2609

                     34                     35                     36
                      A                      A                      A
 Frequencies --    626.0859               672.6087               696.1034
 Red. masses --      1.9160                 2.6789                 3.2163
 Frc consts  --      0.4425                 0.7140                 0.9182
 IR Inten    --      2.6235                 4.5339                10.5851

                     37                     38                     39
                      A                      A                      A
 Frequencies --    737.5116               750.8230               770.2292
 Red. masses --      4.4131                 1.4533                 1.2944
 Frc consts  --      1.4143                 0.4827                 0.4524
 IR Inten    --     15.9638                32.5252                14.0296

                     40                     41                     42
                      A                      A                      A
 Frequencies --    785.4374               786.6508               822.6164
 Red. masses --      1.2890                 1.1776                 3.3378
 Frc consts  --      0.4685                 0.4293                 1.3308
 IR Inten    --     42.8800                 6.6989                15.5739

                     43                     44                     45
                      A                      A                      A
 Frequencies --    874.8680               889.5963               926.9619
 Red. masses --      1.5959                 3.1157                 2.2611
 Frc consts  --      0.7197                 1.4527                 1.1447
 IR Inten    --      0.0607                32.2493                11.0018

                     46                     47                     48
                      A                      A                      A
 Frequencies --    992.9332               996.1973               997.8674
 Red. masses --      1.7239                 1.4441                 1.7429
 Frc consts  --      1.0014                 0.8444                 1.0225
 IR Inten    --      0.3523                 0.7896                 0.5446

                     49                     50                     51
                      A                      A                      A
 Frequencies --   1009.6853              1015.8011              1021.3172
 Red. masses --      1.5217                 1.4101                 1.5433
 Frc consts  --      0.9140                 0.8573                 0.9485
 IR Inten    --      5.7691                 9.5496                 5.6577

                     52                     53                     54
                      A                      A                      A
 Frequencies --   1022.7656              1043.8476              1051.4007
 Red. masses --      2.2789                 1.6012                 2.3454
 Frc consts  --      1.4045                 1.0279                 1.5276
 IR Inten    --     20.5271                 5.8595                 1.8071

                     55                     56                     57
                      A                      A                      A
 Frequencies --   1061.8808              1070.6600              1080.0415
 Red. masses --      2.9581                 1.5932                 1.7331
 Frc consts  --      1.9652                 1.0760                 1.1912
 IR Inten    --     34.5468                50.2480                21.4464

                     58                     59                     60
                      A                      A                      A
 Frequencies --   1084.4102              1109.6445              1139.2183
 Red. masses --      1.8047                 1.7305                 1.9226
 Frc consts  --      1.2504                 1.2554                 1.4701
 IR Inten    --     12.1700                 2.8169                42.4737

                     61                     62                     63
                      A                      A                      A
 Frequencies --   1152.0693              1165.3637              1175.4644
 Red. masses --      4.4395                 2.5201                 2.6177
 Frc consts  --      3.4717                 2.0164                 2.1310
 IR Inten    --     93.2615                55.2747                18.7250

                     64                     65                     66
                      A                      A                      A
 Frequencies --   1236.9323              1245.4845              1272.1599
 Red. masses --      1.4083                 1.1233                 1.2956
 Frc consts  --      1.2695                 1.0266                 1.2353
 IR Inten    --     11.6996                 4.2292                19.1796

                     67                     68                     69
                      A                      A                      A
 Frequencies --   1280.9911              1283.1135              1291.8527
 Red. masses --      1.2346                 1.2337                 1.1947
 Frc consts  --      1.1936                 1.1967                 1.1747
 IR Inten    --      1.3813                 0.4764                 3.8342

                     70                     71                     72
                      A                      A                      A
 Frequencies --   1306.1878              1306.7688              1312.2816
 Red. masses --      1.3959                 1.3419                 1.3825
 Frc consts  --      1.4032                 1.3501                 1.4027
 IR Inten    --      1.6153                29.9528                12.8034

                     73                     74                     75
                      A                      A                      A
 Frequencies --   1321.8107              1322.2777              1348.5451
 Red. masses --      1.3873                 1.2667                 1.2029
 Frc consts  --      1.4281                 1.3048                 1.2889
 IR Inten    --      0.4744                 9.2066                17.4425

                     76                     77                     78
                      A                      A                      A
 Frequencies --   1350.9766              1378.8380              1402.2766
 Red. masses --      1.2418                 1.2768                 1.3108
 Frc consts  --      1.3353                 1.4302                 1.5187
 IR Inten    --      4.5212                 6.8358                25.6504

                     79                     80                     81
                      A                      A                      A
 Frequencies --   1419.1548              1441.0121              1442.1889
 Red. masses --      1.3995                 1.3345                 1.2079
 Frc consts  --      1.6607                 1.6326                 1.4803
 IR Inten    --      9.2529                 9.5317                 0.9771

                     82                     83                     84
                      A                      A                      A
 Frequencies --   1445.0882              1445.9619              1448.5102
 Red. masses --      1.2040                 1.2019                 1.4915
 Frc consts  --      1.4813                 1.4806                 1.8438
 IR Inten    --      1.4288                 3.0877                 3.6602

                     85                     86                     87
                      A                      A                      A
 Frequencies --   1489.7556              1492.6559              1495.0545
 Red. masses --      1.0800                 1.0824                 1.0850
 Frc consts  --      1.4123                 1.4208                 1.4289
 IR Inten    --      1.5359                 4.6161                10.8723

                     88                     89                     90
                      A                      A                      A
 Frequencies --   1509.7015              1513.2974              1517.4164
 Red. masses --      1.0823                 1.0854                 1.0828
 Frc consts  --      1.4534                 1.4645                 1.4689
 IR Inten    --      0.3502                 0.3028                 2.1634

                     91                     92                     93
                      A                      A                      A
 Frequencies --   1521.6601              1527.6580              1528.9904
 Red. masses --      1.1036                 1.1074                 1.0449
 Frc consts  --      1.5055                 1.5227                 1.4392
 IR Inten    --     18.8984                 4.1188                 5.8823

                     94                     95                     96
                      A                      A                      A
 Frequencies --   1531.1695              1532.1798              1532.6882
 Red. masses --      1.0395                 1.0453                 1.0391
 Frc consts  --      1.4359                 1.4459                 1.4382
 IR Inten    --      7.8447                 6.1796                 4.9536

                     97                     98                     99
                      A                      A                      A
 Frequencies --   1534.9463              1535.2467              1537.6275
 Red. masses --      1.0476                 1.0412                 1.1057
 Frc consts  --      1.4542                 1.4459                 1.5403
 IR Inten    --      4.8487                 2.1052                 3.1120

                    100                    101                    102
                      A                      A                      A
 Frequencies --   2925.2793              2932.8212              2955.4805
 Red. masses --      1.0732                 1.0723                 1.0720
 Frc consts  --      5.4109                 5.4342                 5.5172
 IR Inten    --     29.2101                80.5690                71.4195

                    103                    104                    105
                      A                      A                      A
 Frequencies --   2992.9158              2999.5526              3051.0638
 Red. masses --      1.0697                 1.0701                 1.0576
 Frc consts  --      5.6455                 5.6725                 5.8007
 IR Inten    --     19.9974               107.9467                 8.4967

                    106                    107                    108
                      A                      A                      A
 Frequencies --   3052.8837              3056.8404              3057.1156
 Red. masses --      1.0569                 1.0358                 1.0363
 Frc consts  --      5.8036                 5.7026                 5.7062
 IR Inten    --      2.5784                20.8547                24.1392

                    109                    110                    111
                      A                      A                      A
 Frequencies --   3059.5051              3063.6278              3075.7267
 Red. masses --      1.0390                 1.0608                 1.0753
 Frc consts  --      5.7299                 5.8663                 5.9932
 IR Inten    --     40.5470                 4.6142                16.5285

                    112                    113                    114
                      A                      A                      A
 Frequencies --   3077.5420              3085.3271              3093.7513
 Red. masses --      1.0795                 1.0830                 1.0845
 Frc consts  --      6.0239                 6.0739                 6.1160
 IR Inten    --     25.1907                34.4138                29.7135

                    115                    116                    117
                      A                      A                      A
 Frequencies --   3094.4075              3097.6459              3100.7030
 Red. masses --      1.1039                 1.1027                 1.1026
 Frc consts  --      6.2279                 6.2342                 6.2456
 IR Inten    --      2.4836                 8.2902                 0.2817

                    118                    119                    120
                      A                      A                      A
 Frequencies --   3107.6582              3109.9162              3120.8215
 Red. masses --      1.0936                 1.0951                 1.1016
 Frc consts  --      6.2229                 6.2402                 6.3212
 IR Inten    --     53.9736                43.4626                26.9419

                    121                    122                    123
                      A                      A                      A
 Frequencies --   3121.8063              3122.9090              3131.6649
 Red. masses --      1.1027                 1.1022                 1.1090
 Frc consts  --      6.3315                 6.3331                 6.4079
 IR Inten    --      6.7521                34.7961                18.1854

                    124                    125                    126
                      A                      A                      A
 Frequencies --   3132.0717              3133.3137              3134.4677
 Red. masses --      1.1030                 1.1033                 1.1032
 Frc consts  --      6.3751                 6.3818                 6.3861
 IR Inten    --     17.7910                38.4148                17.1632

 - Thermochemistry -
 -------------------
 Temperature   298.150 Kelvin.  Pressure   1.00000 Atm.
 Atom     1 has atomic number 79 and mass 196.96660

 Molecular mass:   461.12170 amu.
 Principal axes and moments of inertia in atomic units:
                           1         2         3
     Eigenvalues --  2803.50822********************
           X            0.99995   0.00979   0.00263
           Y           -0.00955   0.99685  -0.07878
           Z           -0.00339   0.07875   0.99689
 This molecule is an asymmetric top.
 Rotational symmetry number  1.
 Warning -- assumption of classical behavior for rotation
           may cause significant error
 Rotational temperatures (Kelvin)      0.03089     0.00421     0.00411
 Rotational constants (GHZ):           0.64374     0.08781     0.08567
 Zero-point vibrational energy    1016001.7 (Joules/Mol)
                                  242.83024 (Kcal/Mol)
 Warning -- explicit consideration of  33 degrees of freedom as
           vibrations may cause significant error
 Vibrational temperatures:     15.47    27.59    31.88    66.24    78.73
          (Kelvin)             90.80    91.58   110.80   112.46   132.71
                              159.57   175.44   195.14   216.47   250.35
                              261.36   279.66   329.25   343.40   356.87
                              370.91   374.03   392.45   454.14   485.65
                              517.07   544.12   562.71   623.78   626.93
                              688.13   712.01   887.06   900.80   967.73
                             1001.54  1061.11  1080.27  1108.19  1130.07
                             1131.81  1183.56  1258.74  1279.93  1333.69
                             1428.61  1433.30  1435.71  1452.71  1461.51
                             1469.45  1471.53  1501.86  1512.73  1527.81
                             1540.44  1553.94  1560.22  1596.53  1639.08
                             1657.57  1676.70  1691.23  1779.67  1791.97
                             1830.35  1843.06  1846.11  1858.69  1879.31
                             1880.15  1888.08  1901.79  1902.46  1940.25
                             1943.75  1983.84  2017.56  2041.84  2073.29
                             2074.99  2079.16  2080.41  2084.08  2143.42
                             2147.60  2151.05  2172.12  2177.29  2183.22
                             2189.33  2197.96  2199.87  2203.01  2204.46
                             2205.19  2208.44  2208.87  2212.30  4208.82
                             4219.67  4252.27  4306.13  4315.68  4389.79
                             4392.41  4398.11  4398.50  4401.94  4407.87
                             4425.28  4427.89  4439.09  4451.21  4452.16
                             4456.82  4461.21  4471.22  4474.47  4490.16
                             4491.58  4493.16  4505.76  4506.35  4508.13
                             4509.79

 Zero-point correction=                           0.386975 (Hartree/Particle)
 Thermal correction to Energy=                    0.410316
 Thermal correction to Enthalpy=                  0.411260
 Thermal correction to Gibbs Free Energy=         0.328716
 Sum of electronic and zero-point Energies=          -1478.193292
 Sum of electronic and thermal Energies=             -1478.169951
 Sum of electronic and thermal Enthalpies=           -1478.169007
 Sum of electronic and thermal Free Energies=        -1478.251551

                     E (Thermal)             CV                S
                      KCal/Mol        Cal/Mol-Kelvin    Cal/Mol-Kelvin
 Total                  257.477             81.489            173.729
 Electronic               0.000              0.000              0.000
 Translational            0.889              2.981             44.274
 Rotational               0.889              2.981             35.450
 Vibrational            255.700             75.527             94.005
 Vibration     1          0.593              1.987              7.866
 Vibration     2          0.593              1.986              6.718
 Vibration     3          0.593              1.985              6.431
 Vibration     4          0.595              1.979              4.981
 Vibration     5          0.596              1.976              4.639
 Vibration     6          0.597              1.972              4.358
 Vibration     7          0.597              1.972              4.341
 Vibration     8          0.599              1.964              3.966
 Vibration     9          0.599              1.964              3.936
 Vibration    10          0.602              1.955              3.612
 Vibration    11          0.607              1.940              3.253
 Vibration    12          0.609              1.931              3.069
 Vibration    13          0.613              1.918              2.865
 Vibration    14          0.618              1.902              2.667
 Vibration    15          0.627              1.874              2.392
 Vibration    16          0.630              1.865              2.311
 Vibration    17          0.635              1.848              2.186
 Vibration    18          0.652              1.797              1.888
 Vibration    19          0.657              1.781              1.813
 Vibration    20          0.662              1.766              1.745
 Vibration    21          0.667              1.750              1.677
 Vibration    22          0.668              1.746              1.662
 Vibration    23          0.676              1.724              1.579
 Vibration    24          0.703              1.644              1.333
 Vibration    25          0.718              1.601              1.224
 Vibration    26          0.734              1.556              1.125
 Vibration    27          0.748              1.517              1.046
 Vibration    28          0.759              1.489              0.996
 Vibration    29          0.794              1.397              0.847
 Vibration    30          0.796              1.392              0.840
 Vibration    31          0.835              1.298              0.715
 Vibration    32          0.850              1.261              0.671
 Vibration    33          0.976              0.997              0.422

 Optimization completed on the basis of negligible forces.
    -- Stationary point found.
 Normal termination of Gaussian 09 at Mon Apr 24 08:48:51 2023.
