 Gaussian 09, Revision D.01,
 Gaussian 09:  EM64L-G09RevD.01 24-Apr-2013

 ----------------------------------------
 # opt freq=noraman b3lyp/gen pseudo=read
 ----------------------------------------

 --
 af
 --
 Symbolic Z-matrix:
 Charge =  0 Multiplicity = 1

 SCF Done:  E(RB3LYP) =  -1152.65952555     A.U. after   12 cycles
 SCF Done:  E(RB3LYP) =  -1152.67647643     A.U. after   11 cycles
 SCF Done:  E(RB3LYP) =  -1152.67428848     A.U. after   13 cycles
 SCF Done:  E(RB3LYP) =  -1152.67877331     A.U. after   10 cycles
 SCF Done:  E(RB3LYP) =  -1152.68045007     A.U. after   11 cycles
 SCF Done:  E(RB3LYP) =  -1152.67923763     A.U. after   11 cycles
 SCF Done:  E(RB3LYP) =  -1152.68068859     A.U. after    9 cycles
 SCF Done:  E(RB3LYP) =  -1152.68115377     A.U. after   10 cycles
 SCF Done:  E(RB3LYP) =  -1152.68119885     A.U. after    9 cycles
 SCF Done:  E(RB3LYP) =  -1152.68122051     A.U. after    9 cycles
 SCF Done:  E(RB3LYP) =  -1152.68122571     A.U. after    8 cycles
 SCF Done:  E(RB3LYP) =  -1152.68122777     A.U. after    8 cycles
 SCF Done:  E(RB3LYP) =  -1152.68122860     A.U. after    8 cycles
 SCF Done:  E(RB3LYP) =  -1152.68122887     A.U. after    8 cycles
 SCF Done:  E(RB3LYP) =  -1152.68122871     A.U. after    7 cycles
 SCF Done:  E(RB3LYP) =  -1152.68122855     A.U. after    7 cycles
 Optimization completed on the basis of negligible forces.
    -- Stationary point found.
 Normal termination of Gaussian 09 at Wed Apr 19 14:06:37 2023.

 ------------------------------------------------------------------
 #N Geom=AllCheck Guess=TCheck SCRF=Check GenChk RB3LYP/ChkBas Freq
 ------------------------------------------------------------------

 Structure from the checkpoint file:  "/home/scr/helius/Gau-7372.chk"
 --
 af
 --
 Charge =  0 Multiplicity = 1

                         Standard orientation:
 ---------------------------------------------------------------------
 Center     Atomic      Atomic             Coordinates (Angstroms)
 Number     Number       Type             X           Y           Z
 ---------------------------------------------------------------------
      1         79           0       -0.789488    0.098241    0.034184
      2         16           0       -3.096320    0.221206    0.252077
      3         15           0        1.521775    0.046487   -0.107690
      4          6           0        2.302705    1.624758   -0.699421
      5          6           0        1.875857    2.862020    0.102818
      6          6           0        2.379141   -0.306669    1.502570
      7          6           0        1.972548   -1.645170    2.133235
      8          6           0        2.136272   -1.250349   -1.291071
      9          6           0        3.656638   -1.410739   -1.423908
     10          1           0        3.393745    1.510646   -0.682919
     11          1           0        2.003947    1.738005   -1.748835
     12          1           0        2.332543    3.762943   -0.321342
     13          1           0        2.188411    2.796676    1.150745
     14          1           0        0.788614    2.989824    0.081863
     15          1           0        3.464248   -0.260266    1.345876
     16          1           0        2.117226    0.517794    2.175695
     17          1           0        2.467725   -1.773506    3.101951
     18          1           0        2.255866   -2.495150    1.502444
     19          1           0        0.890773   -1.691800    2.296158
     20          1           0        1.685877   -1.004757   -2.260534
     21          1           0        1.674211   -2.193564   -0.977400
     22          1           0        4.136218   -0.492349   -1.778275
     23          1           0        3.887846   -2.201158   -2.146764
     24          1           0        4.122975   -1.690120   -0.473043
     25          6           0       -3.754805   -1.107348   -0.853215
     26          1           0       -3.399973   -2.096260   -0.552425
     27          1           0       -4.844367   -1.084436   -0.758716
     28          1           0       -3.491997   -0.929192   -1.898960
 ---------------------------------------------------------------------

 SCF Done:  E(RB3LYP) =  -1152.68122855     A.U. after    1 cycles

 The electronic state is 1-A.
 Alpha  occ. eigenvalues --  -88.79580 -77.11513 -10.21206 -10.21031 -10.20986
 Alpha  occ. eigenvalues --  -10.19984 -10.19145 -10.19078 -10.16749  -7.87188
 Alpha  occ. eigenvalues --   -6.59489  -5.83584  -5.83155  -5.82717  -4.75647
 Alpha  occ. eigenvalues --   -4.75630  -4.75381  -4.15412  -2.30021  -2.27988
 Alpha  occ. eigenvalues --   -2.27818  -0.81966  -0.77938  -0.77693  -0.71720
 Alpha  occ. eigenvalues --   -0.68808  -0.64782  -0.63763  -0.58565  -0.55853
 Alpha  occ. eigenvalues --   -0.48948  -0.47515  -0.47190  -0.45631  -0.44025
 Alpha  occ. eigenvalues --   -0.42999  -0.40610  -0.40118  -0.39505  -0.39376
 Alpha  occ. eigenvalues --   -0.38906  -0.38561  -0.38100  -0.36925  -0.36875
 Alpha  occ. eigenvalues --   -0.34571  -0.34175  -0.32604  -0.31037  -0.28876
 Alpha  occ. eigenvalues --   -0.28866  -0.28514  -0.26408  -0.22140  -0.17770
 Alpha virt. eigenvalues --   -0.01812  -0.00643   0.02536   0.03817   0.05418
 Alpha virt. eigenvalues --    0.05561   0.07819   0.08366   0.10192   0.10317
 Alpha virt. eigenvalues --    0.11088   0.11792   0.12057   0.13167   0.14197

 Mulliken charges:
               1
     1  Au  -0.132075
     2  S   -0.181376
     3  P    0.480657
     4  C   -0.444678
     5  C   -0.470091
     6  C   -0.443445
     7  C   -0.471141
     8  C   -0.454548
     9  C   -0.455424
    10  H    0.166757
    11  H    0.183642
    12  H    0.160250
    13  H    0.157212
    14  H    0.207776
    15  H    0.166070
    16  H    0.189348
    17  H    0.160756
    18  H    0.153947
    19  H    0.207460
    20  H    0.189594
    21  H    0.191934
    22  H    0.158153
    23  H    0.164851
    24  H    0.158702
    25  C   -0.567398
    26  H    0.176541
    27  H    0.169704
    28  H    0.176822
 Sum of Mulliken charges =   0.00000

 Dipole moment (field-independent basis, Debye):
    X=              8.1718    Y=             -1.1972    Z=             -1.2617  Tot=              8.3549
 Quadrupole moment (field-independent basis, Debye-Ang):
   XX=            -99.0016   YY=            -93.7731   ZZ=            -94.8080
   XY=              4.3712   XZ=              3.3109   YZ=              1.0751

  Exact polarizability: 202.340   2.699 135.792   0.302   2.064 127.317
 Approx polarizability: 279.563   1.404 204.796  -2.586   6.485 200.925

                      1                      2                      3
                      A                      A                      A
 Frequencies --     13.2530                37.5997                49.3948
 Red. masses --      3.1312                 4.3417                 5.5072
 Frc consts  --      0.0003                 0.0036                 0.0079
 IR Inten    --      2.8562                 0.3211                 1.3030

                      4                      5                      6
                      A                      A                      A
 Frequencies --     60.0184                75.0145                85.0530
 Red. masses --      2.4170                 2.4655                 1.9569
 Frc consts  --      0.0051                 0.0082                 0.0083
 IR Inten    --      0.0415                 0.0676                 0.1615

                      7                      8                      9
                      A                      A                      A
 Frequencies --    108.5473               117.6422               126.5785
 Red. masses --      2.7457                 2.0444                 1.4880
 Frc consts  --      0.0191                 0.0167                 0.0140
 IR Inten    --      0.3956                 0.7092                 0.2635

                     10                     11                     12
                      A                      A                      A
 Frequencies --    139.7847               170.0969               177.6508
 Red. masses --      2.4383                 2.1884                 1.8361
 Frc consts  --      0.0281                 0.0373                 0.0341
 IR Inten    --      0.1602                 0.3742                 0.2477

                     13                     14                     15
                      A                      A                      A
 Frequencies --    190.3502               222.3089               241.0069
 Red. masses --      2.2442                 1.9188                 1.6999
 Frc consts  --      0.0479                 0.0559                 0.0582
 IR Inten    --      0.1884                 0.2217                 0.1088

                     16                     17                     18
                      A                      A                      A
 Frequencies --    255.1178               265.8685               314.3334
 Red. masses --      1.3344                 1.6753                 2.9339
 Frc consts  --      0.0512                 0.0698                 0.1708
 IR Inten    --      0.2083                 1.4195                 1.6058

                     19                     20                     21
                      A                      A                      A
 Frequencies --    337.8069               376.6418               431.6095
 Red. masses --     16.3503                 3.5026                 3.4660
 Frc consts  --      1.0993                 0.2928                 0.3804
 IR Inten    --     28.0375                 3.0478                 6.3977

                     22                     23                     24
                      A                      A                      A
 Frequencies --    614.8040               670.3789               690.1493
 Red. masses --      3.4054                 2.6253                 3.5120
 Frc consts  --      0.7584                 0.6951                 0.9856
 IR Inten    --      9.0787                 3.8966                14.6146

                     25                     26                     27
                      A                      A                      A
 Frequencies --    693.5236               749.4366               769.7618
 Red. masses --      5.9816                 1.4606                 1.2886
 Frc consts  --      1.6951                 0.4833                 0.4499
 IR Inten    --      0.3240                34.4359                13.1490

                     28                     29                     30
                      A                      A                      A
 Frequencies --    784.5778               970.2307               987.3477
 Red. masses --      1.2958                 1.1704                 1.2111
 Frc consts  --      0.4700                 0.6491                 0.6956
 IR Inten    --     44.7037                 5.9665                14.0342

                     31                     32                     33
                      A                      A                      A
 Frequencies --    991.4144               994.4435               995.9450
 Red. masses --      1.6848                 1.5895                 1.5262
 Frc consts  --      0.9757                 0.9261                 0.8920
 IR Inten    --      0.0379                 0.2777                 0.6675

                     34                     35                     36
                      A                      A                      A
 Frequencies --   1006.4960              1018.2561              1041.0546
 Red. masses --      1.4939                 1.4044                 1.6071
 Frc consts  --      0.8917                 0.8579                 1.0262
 IR Inten    --      6.7667                 1.9582                 7.2801

                     37                     38                     39
                      A                      A                      A
 Frequencies --   1069.0939              1077.2015              1082.7929
 Red. masses --      1.5961                 1.7510                 1.8178
 Frc consts  --      1.0748                 1.1971                 1.2557
 IR Inten    --     48.4524                16.2236                13.6285

                     40                     41                     42
                      A                      A                      A
 Frequencies --   1278.5799              1281.8445              1289.8044
 Red. masses --      1.2413                 1.2421                 1.2037
 Frc consts  --      1.1956                 1.2025                 1.1798
 IR Inten    --      1.3120                 0.7400                 5.3526

                     43                     44                     45
                      A                      A                      A
 Frequencies --   1302.4490              1306.5971              1318.6489
 Red. masses --      1.3884                 1.3825                 1.3888
 Frc consts  --      1.3876                 1.3906                 1.4228
 IR Inten    --      1.7598                12.5246                 0.4507

                     46                     47                     48
                      A                      A                      A
 Frequencies --   1377.5040              1440.7732              1443.3856
 Red. masses --      1.1491                 1.2078                 1.2016
 Frc consts  --      1.2846                 1.4772                 1.4750
 IR Inten    --     31.3828                 1.0060                 2.3735

                     49                     50                     51
                      A                      A                      A
 Frequencies --   1444.9815              1487.3259              1490.9110
 Red. masses --      1.2024                 1.0808                 1.0842
 Frc consts  --      1.4792                 1.4087                 1.4199
 IR Inten    --      2.9603                 1.2887                 2.5708

                     52                     53                     54
                      A                      A                      A
 Frequencies --   1492.6220              1509.5931              1517.9946
 Red. masses --      1.0838                 1.0574                 1.0554
 Frc consts  --      1.4227                 1.4198                 1.4329
 IR Inten    --     12.1690                 4.6755                 5.9655

                     55                     56                     57
                      A                      A                      A
 Frequencies --   1527.6401              1529.7456              1530.9805
 Red. masses --      1.0454                 1.0435                 1.0398
 Frc consts  --      1.4373                 1.4387                 1.4360
 IR Inten    --      7.1970                 9.6128                 7.2135

                     58                     59                     60
                      A                      A                      A
 Frequencies --   1532.0107              1533.1605              1533.8760
 Red. masses --      1.0426                 1.0396                 1.0464
 Frc consts  --      1.4418                 1.4398                 1.4506
 IR Inten    --      3.7193                 2.6853                 2.8878

                     61                     62                     63
                      A                      A                      A
 Frequencies --   3048.9907              3051.5367              3056.1930
 Red. masses --      1.0575                 1.0564                 1.0358
 Frc consts  --      5.7920                 5.7960                 5.7002
 IR Inten    --      6.2588                 3.4210                22.7612

                     64                     65                     66
                      A                      A                      A
 Frequencies --   3056.6453              3057.5987              3061.9147
 Red. masses --      1.0355                 1.0404                 1.0291
 Frc consts  --      5.7004                 5.7305                 5.6847
 IR Inten    --     25.4257                40.2946                49.9709

                     67                     68                     69
                      A                      A                      A
 Frequencies --   3062.7592              3092.9563              3097.1139
 Red. masses --      1.0603                 1.1039                 1.1028
 Frc consts  --      5.8599                 6.2222                 6.2323
 IR Inten    --      6.5108                 2.9146                 7.9478

                     70                     71                     72
                      A                      A                      A
 Frequencies --   3099.6570              3119.6465              3121.3837
 Red. masses --      1.1028                 1.1017                 1.1026
 Frc consts  --      6.2426                 6.3173                 6.3295
 IR Inten    --      0.3511                24.8688                 8.4688

                     73                     74                     75
                      A                      A                      A
 Frequencies --   3122.5154              3129.5189              3132.5995
 Red. masses --      1.1021                 1.1031                 1.1034
 Frc consts  --      6.3312                 6.3652                 6.3797
 IR Inten    --     38.0686                19.7122                37.9531

                     76                     77                     78
                      A                      A                      A
 Frequencies --   3133.3617              3141.0454              3143.9197
 Red. masses --      1.1036                 1.1054                 1.1077
 Frc consts  --      6.3837                 6.4254                 6.4506
 IR Inten    --     11.2249                 7.5421                12.8403

 - Thermochemistry -
 -------------------
 Temperature   298.150 Kelvin.  Pressure   1.00000 Atm.
 Atom     1 has atomic number 79 and mass 196.96660

 Molecular mass:   362.05329 amu.
 Principal axes and moments of inertia in atomic units:
                           1         2         3
     Eigenvalues --  1730.511915166.629305533.93334
           X            0.99993   0.00916   0.00765
           Y           -0.00919   0.99995   0.00387
           Z           -0.00761  -0.00394   0.99996
 This molecule is an asymmetric top.
 Rotational symmetry number  1.
 Warning -- assumption of classical behavior for rotation
           may cause significant error
 Rotational temperatures (Kelvin)      0.05005     0.01676     0.01565
 Rotational constants (GHZ):           1.04289     0.34931     0.32612
 Zero-point vibrational energy     633436.8 (Joules/Mol)
                                  151.39504 (Kcal/Mol)
 Warning -- explicit consideration of  22 degrees of freedom as
           vibrations may cause significant error
 Vibrational temperatures:     19.07    54.10    71.07    86.35   107.93
          (Kelvin)            122.37   156.18   169.26   182.12   201.12
                              244.73   255.60   273.87   319.85   346.75
                              367.06   382.52   452.26   486.03   541.90
                              620.99   884.56   964.52   992.97   997.82
                             1078.27  1107.51  1128.83  1395.94  1420.57
                             1426.42  1430.78  1432.94  1448.12  1465.04
                             1497.84  1538.19  1549.85  1557.90  1839.59
                             1844.29  1855.74  1873.93  1879.90  1897.24
                             1981.92  2072.95  2076.71  2079.00  2139.93
                             2145.09  2147.55  2171.97  2184.05  2197.93
                             2200.96  2202.74  2204.22  2205.87  2206.90
                             4386.81  4390.48  4397.17  4397.83  4399.20
                             4405.41  4406.62  4450.07  4456.05  4459.71
                             4488.47  4490.97  4492.60  4502.67  4507.11
                             4508.20  4519.26  4523.39

 Zero-point correction=                           0.241263 (Hartree/Particle)
 Thermal correction to Energy=                    0.258273
 Thermal correction to Enthalpy=                  0.259217
 Thermal correction to Gibbs Free Energy=         0.192733
 Sum of electronic and zero-point Energies=          -1152.439965
 Sum of electronic and thermal Energies=             -1152.422956
 Sum of electronic and thermal Enthalpies=           -1152.422011
 Sum of electronic and thermal Free Energies=        -1152.488495

                     E (Thermal)             CV                S
                      KCal/Mol        Cal/Mol-Kelvin    Cal/Mol-Kelvin
 Total                  162.069             56.049            139.927
 Electronic               0.000              0.000              0.000
 Translational            0.889              2.981             43.553
 Rotational               0.889              2.981             32.270
 Vibrational            160.291             50.087             64.104
 Vibration     1          0.593              1.987              7.452
 Vibration     2          0.594              1.982              5.382
 Vibration     3          0.595              1.978              4.841
 Vibration     4          0.597              1.973              4.457
 Vibration     5          0.599              1.966              4.017
 Vibration     6          0.601              1.960              3.771
 Vibration     7          0.606              1.942              3.295
 Vibration     8          0.608              1.935              3.139
 Vibration     9          0.611              1.927              2.997
 Vibration    10          0.615              1.914              2.807
 Vibration    11          0.625              1.879              2.434
 Vibration    12          0.628              1.870              2.353
 Vibration    13          0.634              1.853              2.224
 Vibration    14          0.648              1.807              1.940
 Vibration    15          0.658              1.778              1.795
 Vibration    16          0.665              1.754              1.695
 Vibration    17          0.672              1.736              1.623
 Vibration    18          0.702              1.646              1.339
 Vibration    19          0.718              1.600              1.222
 Vibration    20          0.747              1.520              1.053
 Vibration    21          0.793              1.401              0.853
 Vibration    22          0.974              1.001              0.425

 Optimization completed on the basis of negligible forces.
    -- Stationary point found.
 Normal termination of Gaussian 09 at Wed Apr 19 14:10:56 2023.
