 Gaussian 09, Revision D.01,
 Gaussian 09:  EM64L-G09RevD.01 24-Apr-2013

 ----------------------------------------
 # opt freq=noraman b3lyp/gen pseudo=read
 ----------------------------------------

 -------------------
 Title Card Required
 -------------------
 Symbolic Z-matrix:
 Charge =  0 Multiplicity = 1

 SCF Done:  E(RB3LYP) =  -1377.35172151     A.U. after   15 cycles
 SCF Done:  E(RB3LYP) =  -1377.35339730     A.U. after   12 cycles
 SCF Done:  E(RB3LYP) =  -1377.35540591     A.U. after   13 cycles
 SCF Done:  E(RB3LYP) =  -1377.35468459     A.U. after   12 cycles
 SCF Done:  E(RB3LYP) =  -1377.35604565     A.U. after    9 cycles
 SCF Done:  E(RB3LYP) =  -1377.35697922     A.U. after   11 cycles
 SCF Done:  E(RB3LYP) =  -1377.35739367     A.U. after   11 cycles
 SCF Done:  E(RB3LYP) =  -1377.35744316     A.U. after   10 cycles
 SCF Done:  E(RB3LYP) =  -1377.35744498     A.U. after   10 cycles
 SCF Done:  E(RB3LYP) =  -1377.35744699     A.U. after   10 cycles
 SCF Done:  E(RB3LYP) =  -1377.35744746     A.U. after    8 cycles
 SCF Done:  E(RB3LYP) =  -1377.35744749     A.U. after    7 cycles
 SCF Done:  E(RB3LYP) =  -1377.35744752     A.U. after    7 cycles
 Optimization completed.
    -- Stationary point found.
 Normal termination of Gaussian 09 at Thu Jul 20 13:08:00 2023.

 ------------------------------------------------------------------
 #N Geom=AllCheck Guess=TCheck SCRF=Check GenChk RB3LYP/ChkBas Freq
 ------------------------------------------------------------------

 Structure from the checkpoint file:  "/home/scr/helius/Gau-6992.chk"
 -------------------
 Title Card Required
 -------------------
 Charge =  0 Multiplicity = 1

                         Standard orientation:
 ---------------------------------------------------------------------
 Center     Atomic      Atomic             Coordinates (Angstroms)
 Number     Number       Type             X           Y           Z
 ---------------------------------------------------------------------
      1         79           0        0.546311   -0.201026   -0.203927
      2         16           0       -1.322942   -0.765262   -1.431454
      3          6           0        3.648339   -1.055521    0.966400
      4          6           0        3.915746   -1.625302   -0.423008
      5          6           0        3.398833    1.657179    0.058572
      6          6           0        2.639311    2.981642    0.080034
      7          1           0        4.571645   -0.728984    1.457588
      8          1           0        3.175871   -1.800601    1.613754
      9          1           0        4.573187   -2.498395   -0.334571
     10          1           0        4.413717   -0.901301   -1.075212
     11          1           0        2.984404   -1.940028   -0.903564
     12          1           0        4.386599    1.758314    0.521419
     13          1           0        3.521022    1.288869   -0.962488
     14          1           0        3.200062    3.729783   -0.490843
     15          1           0        2.512258    3.355710    1.100940
     16          1           0        1.649988    2.877235   -0.376952
     17          6           0       -2.676568   -0.041785   -0.485377
     18          6           0       -3.165718    1.225759   -0.824839
     19          6           0       -3.293024   -0.767734    0.564570
     20          6           0       -4.239361    1.798478   -0.144627
     21          1           0       -2.681681    1.762729   -1.635622
     22          6           0       -4.373362   -0.176222    1.246861
     23          7           0       -2.879654   -2.053274    0.891895
     24          6           0       -4.838255    1.087702    0.899398
     25          1           0       -4.601944    2.783499   -0.424552
     26          1           0       -4.851795   -0.731418    2.051494
     27          1           0       -1.967964   -2.307620    0.529473
     28          1           0       -3.033344   -2.333352    1.851505
     29          1           0       -5.675430    1.516552    1.444791
     30         16           0        2.493364    0.385124    1.048447
 ---------------------------------------------------------------------

 SCF Done:  E(RB3LYP) =  -1377.35744752     A.U. after    1 cycles

 The electronic state is 1-A.
 Alpha  occ. eigenvalues --  -88.91986 -88.82063 -14.31050 -10.24529 -10.24289
 Alpha  occ. eigenvalues --  -10.20486 -10.20114 -10.19979 -10.18172 -10.16239
 Alpha  occ. eigenvalues --  -10.16005 -10.15733 -10.15266  -7.99382  -7.89535
 Alpha  occ. eigenvalues --   -5.95701  -5.95446  -5.94939  -5.85908  -5.85560
 Alpha  occ. eigenvalues --   -5.85063  -4.15958  -2.30623  -2.28541  -2.28483
 Alpha  occ. eigenvalues --   -0.89786  -0.85547  -0.81411  -0.79551  -0.74243
 Alpha  occ. eigenvalues --   -0.72892  -0.70486  -0.65547  -0.65479  -0.61646
 Alpha  occ. eigenvalues --   -0.58349  -0.56088  -0.49997  -0.49500  -0.48776
 Alpha  occ. eigenvalues --   -0.48744  -0.48015  -0.44957  -0.44474  -0.42598
 Alpha  occ. eigenvalues --   -0.41295  -0.40741  -0.40612  -0.40213  -0.39147
 Alpha  occ. eigenvalues --   -0.38570  -0.37110  -0.36981  -0.36606  -0.34464
 Alpha  occ. eigenvalues --   -0.33788  -0.32441  -0.32037  -0.29643  -0.29609
 Alpha  occ. eigenvalues --   -0.28666  -0.28278  -0.27934  -0.26365  -0.21085
 Alpha  occ. eigenvalues --   -0.20132  -0.17786
 Alpha virt. eigenvalues --   -0.02400  -0.01460  -0.00961   0.02441   0.03142
 Alpha virt. eigenvalues --    0.03908   0.03993   0.05047   0.07736   0.08953
 Alpha virt. eigenvalues --    0.09256   0.10385   0.11190   0.11777   0.12486

 Mulliken charges:
               1
     1  Au  -0.110993
     2  S   -0.187811
     3  C   -0.417329
     4  C   -0.462287
     5  C   -0.404317
     6  C   -0.472540
     7  H    0.186673
     8  H    0.209442
     9  H    0.168314
    10  H    0.163974
    11  H    0.218809
    12  H    0.182356
    13  H    0.208508
    14  H    0.169602
    15  H    0.176650
    16  H    0.212149
    17  C   -0.124759
    18  C   -0.147786
    19  C    0.304219
    20  C   -0.128488
    21  H    0.138335
    22  C   -0.167875
    23  N   -0.782677
    24  C   -0.137296
    25  H    0.112650
    26  H    0.108297
    27  H    0.356029
    28  H    0.314680
    29  H    0.116757
    30  S    0.196715
 Sum of Mulliken charges =   0.00000

 Dipole moment (field-independent basis, Debye):
    X=              7.8948    Y=              1.0788    Z=              3.2278  Tot=              8.5971
 Quadrupole moment (field-independent basis, Debye-Ang):
   XX=           -101.0976   YY=           -110.3476   ZZ=           -118.9023
   XY=             -1.5995   XZ=             -5.7994   YZ=             -7.5354

  Exact polarizability: 261.003 -16.297 178.456 -10.747 -11.384 143.966
 Approx polarizability: 345.633 -26.022 298.014 -16.650 -22.469 256.950

                      1                      2                      3
                      A                      A                      A
 Frequencies --     14.4641                21.9250                27.9709
 Red. masses --      4.2652                 4.4354                 5.6360
 Frc consts  --      0.0005                 0.0013                 0.0026
 IR Inten    --      0.9312                 0.2253                 0.9022

                      4                      5                      6
                      A                      A                      A
 Frequencies --     49.3194                63.0486                74.4586
 Red. masses --      4.2726                 3.9753                 3.0322
 Frc consts  --      0.0061                 0.0093                 0.0099
 IR Inten    --      0.2615                 0.3553                 0.1794

                      7                      8                      9
                      A                      A                      A
 Frequencies --     83.3922               125.7060               132.3290
 Red. masses --      2.6166                 3.9529                 2.5778
 Frc consts  --      0.0107                 0.0368                 0.0266
 IR Inten    --      0.1846                 0.2592                 0.5834

                     10                     11                     12
                      A                      A                      A
 Frequencies --    156.3615               187.0991               228.3891
 Red. masses --      4.1699                 2.4953                 2.0569
 Frc consts  --      0.0601                 0.0515                 0.0632
 IR Inten    --      0.6953                 0.3929                 1.4589

                     13                     14                     15
                      A                      A                      A
 Frequencies --    253.4631               258.3158               264.9727
 Red. masses --      2.7868                 1.5671                 5.5927
 Frc consts  --      0.1055                 0.0616                 0.2314
 IR Inten    --      9.4655                 6.7704                 1.9420

                     16                     17                     18
                      A                      A                      A
 Frequencies --    282.6129               314.8507               348.6364
 Red. masses --      1.9308                 3.2717                 4.7008
 Frc consts  --      0.0909                 0.1911                 0.3366
 IR Inten    --      2.0441                 0.4254                 7.4685

                     19                     20                     21
                      A                      A                      A
 Frequencies --    358.6917               386.8471               403.6812
 Red. masses --      1.2461                 6.5584                 3.6825
 Frc consts  --      0.0945                 0.5783                 0.3536
 IR Inten    --     54.5588                 2.2711                 1.6993

                     22                     23                     24
                      A                      A                      A
 Frequencies --    462.9802               467.5474               542.9326
 Red. masses --      3.1628                 4.0195                 2.3297
 Frc consts  --      0.3994                 0.5177                 0.4046
 IR Inten    --     18.3102                 5.3566                96.3612

                     25                     26                     27
                      A                      A                      A
 Frequencies --    563.4411               590.7321               628.0033
 Red. masses --      5.8555                 1.7833                 4.1649
 Frc consts  --      1.0953                 0.3667                 0.9678
 IR Inten    --     14.8248               169.5304                 1.2960

                     28                     29                     30
                      A                      A                      A
 Frequencies --    661.9331               686.1103               741.5208
 Red. masses --      4.4943                 6.4040                 3.3917
 Frc consts  --      1.1602                 1.7762                 1.0988
 IR Inten    --      1.5279                 8.0259                 2.4401

                     31                     32                     33
                      A                      A                      A
 Frequencies --    759.2197               779.2886               803.4974
 Red. masses --      1.3166                 1.1903                 1.1308
 Frc consts  --      0.4471                 0.4259                 0.4301
 IR Inten    --     55.7086                 7.9929                10.8430

                     34                     35                     36
                      A                      A                      A
 Frequencies --    847.0538               854.6286               935.5728
 Red. masses --      2.5546                 2.0713                 1.3367
 Frc consts  --      1.0799                 0.8913                 0.6893
 IR Inten    --      1.2073                 5.4280                 1.3863

                     37                     38                     39
                      A                      A                      A
 Frequencies --    962.3921               991.4526               995.7472
 Red. masses --      1.2341                 1.8998                 1.9614
 Frc consts  --      0.6734                 1.1003                 1.1458
 IR Inten    --      0.0522                 7.5393                 4.8209

                     40                     41                     42
                      A                      A                      A
 Frequencies --   1045.3403              1055.1676              1072.0485
 Red. masses --      4.3298                 1.4585                 1.3125
 Frc consts  --      2.7876                 0.9567                 0.8887
 IR Inten    --      8.8545                 3.3896                 4.0070

                     43                     44                     45
                      A                      A                      A
 Frequencies --   1075.0664              1081.7056              1103.5658
 Red. masses --      2.1181                 1.7632                 1.8792
 Frc consts  --      1.4423                 1.2155                 1.3484
 IR Inten    --      1.3721                 2.6385                16.6116

                     46                     47                     48
                      A                      A                      A
 Frequencies --   1113.9415              1172.7759              1191.4681
 Red. masses --      1.6965                 1.2640                 1.0988
 Frc consts  --      1.2403                 1.0243                 0.9191
 IR Inten    --     10.3935                 4.7295                 8.5991

                     49                     50                     51
                      A                      A                      A
 Frequencies --   1283.9113              1291.4486              1294.3586
 Red. masses --      1.2189                 2.0188                 1.1861
 Frc consts  --      1.1838                 1.9838                 1.1708
 IR Inten    --      1.3874                11.0557                 1.8006

                     52                     53                     54
                      A                      A                      A
 Frequencies --   1319.5888              1329.6278              1343.9348
 Red. masses --      1.2613                 1.2850                 2.3366
 Frc consts  --      1.2940                 1.3384                 2.4865
 IR Inten    --     24.7870                40.5057                29.0903

                     55                     56                     57
                      A                      A                      A
 Frequencies --   1361.2293              1441.7911              1443.6070
 Red. masses --      3.2949                 1.2162                 1.2147
 Frc consts  --      3.5972                 1.4896                 1.4915
 IR Inten    --     12.4134                 6.6551                 8.1011

                     58                     59                     60
                      A                      A                      A
 Frequencies --   1493.3128              1494.1351              1505.0884
 Red. masses --      2.3652                 1.0939                 1.0866
 Frc consts  --      3.1076                 1.4388                 1.4503
 IR Inten    --     18.9179                 4.1393                 2.2529

                     61                     62                     63
                      A                      A                      A
 Frequencies --   1520.6031              1522.0138              1526.7616
 Red. masses --      1.0393                 1.0446                 2.5185
 Frc consts  --      1.4159                 1.4257                 3.4589
 IR Inten    --      8.2603                 6.3811                42.4895

                     64                     65                     66
                      A                      A                      A
 Frequencies --   1529.8356              1531.7172              1621.7806
 Red. masses --      1.0460                 1.0472                 5.0192
 Frc consts  --      1.4423                 1.4476                 7.7781
 IR Inten    --      3.3013                 4.9497                 1.3026

                     67                     68                     69
                      A                      A                      A
 Frequencies --   1642.9142              1674.0790              3059.7230
 Red. masses --      2.8537                 1.5063                 1.0370
 Frc consts  --      4.5382                 2.4873                 5.7202
 IR Inten    --      1.7301               114.9390                13.4177

                     70                     71                     72
                      A                      A                      A
 Frequencies --   3061.4963              3075.2155              3076.0067
 Red. masses --      1.0350                 1.0611                 1.0614
 Frc consts  --      5.7156                 5.9124                 5.9168
 IR Inten    --     12.4085                17.2851                 9.8263

                     73                     74                     75
                      A                      A                      A
 Frequencies --   3122.4619              3127.7904              3129.5159
 Red. masses --      1.1037                 1.1003                 1.1039
 Frc consts  --      6.3401                 6.3424                 6.3699
 IR Inten    --      5.8616                13.5234                 5.2498

                     76                     77                     78
                      A                      A                      A
 Frequencies --   3132.3379              3148.2102              3151.9750
 Red. masses --      1.1016                 1.1052                 1.1052
 Frc consts  --      6.3683                 6.4536                 6.4690
 IR Inten    --     13.6246                20.9876                12.2881

                     79                     80                     81
                      A                      A                      A
 Frequencies --   3167.3395              3185.7487              3197.1336
 Red. masses --      1.0866                 1.0879                 1.0917
 Frc consts  --      6.4225                 6.5055                 6.5745
 IR Inten    --     14.1006                12.6114                29.2954

                     82                     83                     84
                      A                      A                      A
 Frequencies --   3210.9274              3540.4438              3653.0099
 Red. masses --      1.0966                 1.0476                 1.0986
 Frc consts  --      6.6616                 7.7370                 8.6374
 IR Inten    --     28.1496                21.6988                23.4690

 - Thermochemistry -
 -------------------
 Temperature   298.150 Kelvin.  Pressure   1.00000 Atm.
 Atom     1 has atomic number 79 and mass 196.96660

 Molecular mass:   411.03902 amu.
 Principal axes and moments of inertia in atomic units:
                           1         2         3
     Eigenvalues --  2250.424398880.270189711.74007
           X            0.99998  -0.00017  -0.00567
           Y           -0.00007   0.99909  -0.04276
           Z            0.00568   0.04276   0.99907
 This molecule is an asymmetric top.
 Rotational symmetry number  1.
 Warning -- assumption of classical behavior for rotation
           may cause significant error
 Rotational temperatures (Kelvin)      0.03849     0.00975     0.00892
 Rotational constants (GHZ):           0.80196     0.20323     0.18583
 Zero-point vibrational energy     642590.5 (Joules/Mol)
                                  153.58282 (Kcal/Mol)
 Warning -- explicit consideration of  26 degrees of freedom as
           vibrations may cause significant error
 Vibrational temperatures:     20.81    31.55    40.24    70.96    90.71
          (Kelvin)            107.13   119.98   180.86   190.39   224.97
                              269.19   328.60   364.68   371.66   381.24
                              406.62   453.00   501.61   516.08   556.59
                              580.81   666.12   672.70   781.16   810.66
                              849.93   903.56   952.37   987.16  1066.88
                             1092.35  1121.22  1156.05  1218.72  1229.62
                             1346.08  1384.67  1426.48  1432.66  1504.01
                             1518.15  1542.44  1546.78  1556.33  1587.78
                             1602.71  1687.36  1714.25  1847.26  1858.10
                             1862.29  1898.59  1913.04  1933.62  1958.50
                             2074.41  2077.03  2148.54  2149.72  2165.48
                             2187.81  2189.84  2196.67  2201.09  2203.80
                             2333.38  2363.78  2408.62  4402.25  4404.80
                             4424.54  4425.68  4492.52  4500.19  4502.67
                             4506.73  4529.57  4534.98  4557.09  4583.58
                             4599.96  4619.80  5093.90  5255.86

 Zero-point correction=                           0.244750 (Hartree/Particle)
 Thermal correction to Energy=                    0.262607
 Thermal correction to Enthalpy=                  0.263551
 Thermal correction to Gibbs Free Energy=         0.194279
 Sum of electronic and zero-point Energies=          -1377.112698
 Sum of electronic and thermal Energies=             -1377.094841
 Sum of electronic and thermal Enthalpies=           -1377.093897
 Sum of electronic and thermal Free Energies=        -1377.163169

                     E (Thermal)             CV                S
                      KCal/Mol        Cal/Mol-Kelvin    Cal/Mol-Kelvin
 Total                  164.788             62.573            145.795
 Electronic               0.000              0.000              0.000
 Translational            0.889              2.981             43.931
 Rotational               0.889              2.981             33.628
 Vibrational            163.011             56.612             68.235
 Vibration     1          0.593              1.986              7.278
 Vibration     2          0.593              1.985              6.452
 Vibration     3          0.593              1.984              5.968
 Vibration     4          0.595              1.978              4.844
 Vibration     5          0.597              1.972              4.359
 Vibration     6          0.599              1.966              4.032
 Vibration     7          0.600              1.961              3.809
 Vibration     8          0.611              1.927              3.011
 Vibration     9          0.612              1.921              2.912
 Vibration    10          0.620              1.896              2.593
 Vibration    11          0.632              1.858              2.256
 Vibration    12          0.651              1.798              1.892
 Vibration    13          0.665              1.757              1.706
 Vibration    14          0.667              1.749              1.673
 Vibration    15          0.671              1.737              1.629
 Vibration    16          0.682              1.706              1.518
 Vibration    17          0.702              1.645              1.337
 Vibration    18          0.726              1.578              1.172
 Vibration    19          0.734              1.557              1.128
 Vibration    20          0.755              1.498              1.012
 Vibration    21          0.769              1.462              0.949
 Vibration    22          0.821              1.332              0.757
 Vibration    23          0.825              1.322              0.744
 Vibration    24          0.898              1.155              0.559
 Vibration    25          0.919              1.110              0.517
 Vibration    26          0.948              1.052              0.466

 Optimization completed.
    -- Stationary point found.
 Normal termination of Gaussian 09 at Thu Jul 20 13:11:26 2023.
