 Gaussian 09, Revision D.01,
 Gaussian 09:  EM64L-G09RevD.01 24-Apr-2013

 ----------------------------------------
 # opt freq=noraman b3lyp/gen pseudo=read
 ----------------------------------------

 -------------------
 Title Card Required
 -------------------
 Symbolic Z-matrix:
 Charge =  0 Multiplicity = 1

 SCF Done:  E(RB3LYP) =  -1474.97552680     A.U. after   15 cycles
 SCF Done:  E(RB3LYP) =  -1474.99524503     A.U. after   12 cycles
 SCF Done:  E(RB3LYP) =  -1474.99382603     A.U. after   13 cycles
 SCF Done:  E(RB3LYP) =  -1474.99806154     A.U. after   10 cycles
 SCF Done:  E(RB3LYP) =  -1474.99959770     A.U. after   12 cycles
 SCF Done:  E(RB3LYP) =  -1475.00091678     A.U. after   13 cycles
 SCF Done:  E(RB3LYP) =  -1474.99429943     A.U. after   13 cycles
 SCF Done:  E(RB3LYP) =  -1475.00106604     A.U. after    9 cycles
 SCF Done:  E(RB3LYP) =  -1475.00121044     A.U. after   11 cycles
 SCF Done:  E(RB3LYP) =  -1475.00127589     A.U. after   10 cycles
 SCF Done:  E(RB3LYP) =  -1475.00129200     A.U. after    9 cycles
 SCF Done:  E(RB3LYP) =  -1475.00130238     A.U. after   10 cycles
 SCF Done:  E(RB3LYP) =  -1475.00130434     A.U. after   10 cycles
 SCF Done:  E(RB3LYP) =  -1475.00130403     A.U. after    8 cycles
 SCF Done:  E(RB3LYP) =  -1475.00130449     A.U. after    8 cycles
 SCF Done:  E(RB3LYP) =  -1475.00130455     A.U. after    8 cycles
 SCF Done:  E(RB3LYP) =  -1475.00130461     A.U. after    7 cycles
 Optimization completed on the basis of negligible forces.
    -- Stationary point found.
 Normal termination of Gaussian 09 at Wed Jul 26 15:27:01 2023.

 ------------------------------------------------------------------
 #N Geom=AllCheck Guess=TCheck SCRF=Check GenChk RB3LYP/ChkBas Freq
 ------------------------------------------------------------------

 Structure from the checkpoint file:  "/home/scr/helius/Gau-17060.chk"
 -------------------
 Title Card Required
 -------------------
 Charge =  0 Multiplicity = 1

                         Standard orientation:
 ---------------------------------------------------------------------
 Center     Atomic      Atomic             Coordinates (Angstroms)
 Number     Number       Type             X           Y           Z
 ---------------------------------------------------------------------
      1         79           0        0.107958   -0.532104   -0.379917
      2         16           0       -1.957971   -1.037410   -1.335481
      3         15           0        2.142253   -0.053458    0.580931
      4          6           0        3.319357   -1.459800    0.724643
      5          6           0        3.597081   -2.156235   -0.614300
      6          6           0        2.533551    2.143757   -0.926477
      7          6           0        1.977442    0.625479    2.295144
      8          6           0        3.285872    1.011981    2.996909
      9          1           0        4.248882   -1.077541    1.162059
     10          1           0        2.878097   -2.161024    1.444679
     11          1           0        4.301572   -2.982440   -0.470519
     12          1           0        4.035487   -1.458888   -1.334616
     13          1           0        2.678571   -2.564379   -1.049064
     14          1           0        2.102347    2.850994   -0.206154
     15          1           0        1.725792    1.782270   -1.574204
     16          1           0        1.419711   -0.126768    2.868633
     17          1           0        1.310198    1.492383    2.213214
     18          1           0        3.912812    0.137599    3.199202
     19          1           0        3.070381    1.493065    3.957149
     20          1           0        3.868406    1.712289    2.390271
     21          6           0       -3.058156    0.074671   -0.432751
     22          6           0       -3.258411    1.387955   -0.875307
     23          6           0       -3.763622   -0.388470    0.706395
     24          6           0       -4.121959    2.258817   -0.210757
     25          1           0       -2.716804    1.721203   -1.756069
     26          6           0       -4.630676    0.500493    1.369680
     27          7           0       -3.643957   -1.703809    1.140119
     28          6           0       -4.805650    1.805515    0.920484
     29          1           0       -4.260249    3.273813   -0.572749
     30          1           0       -5.175792    0.146619    2.242875
     31          1           0       -2.835976   -2.193198    0.771872
     32          1           0       -3.803886   -1.857189    2.126925
     33          1           0       -5.483476    2.467548    1.453950
     34          6           0        3.640690    2.797640   -1.732991
     35          1           0        3.240950    3.656277   -2.283598
     36          1           0        4.445081    3.149359   -1.078912
     37          1           0        4.062972    2.089880   -2.453317
     38          8           0        3.106826    1.025080   -0.211164
 ---------------------------------------------------------------------

 SCF Done:  E(RB3LYP) =  -1475.00130461     A.U. after    1 cycles

 The electronic state is 1-A.
 Alpha  occ. eigenvalues --  -88.81243 -77.15538 -19.18200 -14.30864 -10.25305
 Alpha  occ. eigenvalues --  -10.21281 -10.21238 -10.20316 -10.19764 -10.19081
 Alpha  occ. eigenvalues --  -10.18777 -10.18094 -10.16131 -10.15893 -10.15661
 Alpha  occ. eigenvalues --  -10.15222  -7.88774  -6.62918  -5.85145  -5.84750
 Alpha  occ. eigenvalues --   -5.84341  -4.79298  -4.78976  -4.78782  -4.16805
 Alpha  occ. eigenvalues --   -2.31451  -2.29290  -2.29264  -1.05225  -0.89621
 Alpha  occ. eigenvalues --   -0.81438  -0.81287  -0.78168  -0.77083  -0.73995
 Alpha  occ. eigenvalues --   -0.70371  -0.68712  -0.65166  -0.64812  -0.63626
 Alpha  occ. eigenvalues --   -0.58440  -0.58172  -0.55915  -0.50810  -0.49790
 Alpha  occ. eigenvalues --   -0.49369  -0.48597  -0.47821  -0.46712  -0.46390
 Alpha  occ. eigenvalues --   -0.45271  -0.44358  -0.42477  -0.40678  -0.40661
 Alpha  occ. eigenvalues --   -0.40511  -0.40180  -0.39939  -0.39210  -0.38743
 Alpha  occ. eigenvalues --   -0.38305  -0.37277  -0.36991  -0.36086  -0.35757
 Alpha  occ. eigenvalues --   -0.34978  -0.33493  -0.33027  -0.32757  -0.31045
 Alpha  occ. eigenvalues --   -0.30226  -0.30153  -0.29160  -0.28559  -0.27214
 Alpha  occ. eigenvalues --   -0.26589  -0.20813  -0.20013  -0.17595
 Alpha virt. eigenvalues --   -0.02359  -0.02033   0.00676   0.02445   0.03394
 Alpha virt. eigenvalues --    0.03835   0.04486   0.06552   0.07923   0.09230
 Alpha virt. eigenvalues --    0.09386   0.10240   0.10922   0.11347   0.11961

 Mulliken charges:
               1
     1  Au  -0.209606
     2  S   -0.192610
     3  P    0.766216
     4  C   -0.461266
     5  C   -0.471226
     6  C   -0.046307
     7  C   -0.473023
     8  C   -0.452514
     9  H    0.185214
    10  H    0.183586
    11  H    0.159466
    12  H    0.178263
    13  H    0.198851
    14  H    0.149609
    15  H    0.197830
    16  H    0.188869
    17  H    0.195042
    18  H    0.156746
    19  H    0.162889
    20  H    0.171974
    21  C   -0.122087
    22  C   -0.149170
    23  C    0.297623
    24  C   -0.129403
    25  H    0.138035
    26  C   -0.168977
    27  N   -0.781716
    28  C   -0.139044
    29  H    0.110572
    30  H    0.106667
    31  H    0.352378
    32  H    0.311953
    33  H    0.114875
    34  C   -0.458040
    35  H    0.158216
    36  H    0.160944
    37  H    0.168966
    38  O   -0.559794
 Sum of Mulliken charges =   0.00000

 Dipole moment (field-independent basis, Debye):
    X=              7.3793    Y=              1.7332    Z=              4.3924  Tot=              8.7608
 Quadrupole moment (field-independent basis, Debye-Ang):
   XX=           -138.2922   YY=           -128.8929   ZZ=           -129.6496
   XY=             -3.0236   XZ=             -6.4211   YZ=             -7.4634

  Exact polarizability: 266.857 -18.829 205.316 -12.964  -5.232 185.988
 Approx polarizability: 352.559 -25.644 338.353 -23.834 -11.038 304.111

                      1                      2                      3
                      A                      A                      A
 Frequencies --      8.5325                16.1404                22.4149
 Red. masses --      4.3317                 4.6351                 5.2693
 Frc consts  --      0.0002                 0.0007                 0.0016
 IR Inten    --      0.2133                 0.1989                 0.0926

                      4                      5                      6
                      A                      A                      A
 Frequencies --     32.9553                47.1678                54.6412
 Red. masses --      2.5638                 4.6761                 3.0667
 Frc consts  --      0.0016                 0.0061                 0.0054
 IR Inten    --      0.3153                 0.5437                 0.9648

                      7                      8                      9
                      A                      A                      A
 Frequencies --     60.2880                70.5545                87.4159
 Red. masses --      2.9998                 3.0193                 2.2070
 Frc consts  --      0.0064                 0.0089                 0.0099
 IR Inten    --      0.7393                 0.1548                 0.8924

                     10                     11                     12
                      A                      A                      A
 Frequencies --    104.1316               126.8228               133.5695
 Red. masses --      3.9054                 3.4585                 3.3788
 Frc consts  --      0.0250                 0.0328                 0.0355
 IR Inten    --      0.5169                 0.6940                 0.0085

                     13                     14                     15
                      A                      A                      A
 Frequencies --    151.0792               168.7905               204.5597
 Red. masses --      4.0612                 1.7620                 1.7957
 Frc consts  --      0.0546                 0.0296                 0.0443
 IR Inten    --      1.2823                 0.5748                 4.3268

                     16                     17                     18
                      A                      A                      A
 Frequencies --    216.1433               240.9017               251.5570
 Red. masses --      3.4904                 1.4714                 4.2057
 Frc consts  --      0.0961                 0.0503                 0.1568
 IR Inten    --      0.0641                 2.8540                15.4690

                     19                     20                     21
                      A                      A                      A
 Frequencies --    260.7724               267.1117               278.6512
 Red. masses --      1.3925                 5.0558                 1.7314
 Frc consts  --      0.0558                 0.2125                 0.0792
 IR Inten    --      0.7075                 4.3381                 5.8000

                     22                     23                     24
                      A                      A                      A
 Frequencies --    283.2185               342.7091               363.2286
 Red. masses --      2.6149                11.4150                 1.1153
 Frc consts  --      0.1236                 0.7899                 0.0867
 IR Inten    --      3.2484                 8.1570                66.4047

                     25                     26                     27
                      A                      A                      A
 Frequencies --    380.3332               386.2211               397.2941
 Red. masses --      4.0539                 4.3115                 4.1189
 Frc consts  --      0.3455                 0.3789                 0.3830
 IR Inten    --      3.6960                 1.5885                 5.3402

                     28                     29                     30
                      A                      A                      A
 Frequencies --    459.6817               467.4047               469.7447
 Red. masses --      3.1395                 4.0106                 4.1137
 Frc consts  --      0.3909                 0.5162                 0.5348
 IR Inten    --     19.8602                 2.1908                25.7647

                     31                     32                     33
                      A                      A                      A
 Frequencies --    541.9050               564.6713               590.4572
 Red. masses --      2.3264                 6.0365                 1.7813
 Frc consts  --      0.4025                 1.1340                 0.3659
 IR Inten    --     98.3367                12.0286               176.8972

                     34                     35                     36
                      A                      A                      A
 Frequencies --    657.5961               683.8983               685.7077
 Red. masses --      4.3251                 2.7795                 5.4343
 Frc consts  --      1.1020                 0.7659                 1.5055
 IR Inten    --     44.5665                14.7896                 5.2341

                     37                     38                     39
                      A                      A                      A
 Frequencies --    731.0765               740.0246               758.5943
 Red. masses --      1.8985                 3.4459                 1.3152
 Frc consts  --      0.5978                 1.1118                 0.4459
 IR Inten    --      9.2775                 2.8365                56.4791

                     40                     41                     42
                      A                      A                      A
 Frequencies --    766.8617               794.6535               825.5301
 Red. masses --      1.5758                 1.8893                 1.1062
 Frc consts  --      0.5460                 0.7029                 0.4442
 IR Inten    --     36.8863               101.7883                 5.3912

                     43                     44                     45
                      A                      A                      A
 Frequencies --    846.0767               854.0884               933.8674
 Red. masses --      2.5701                 2.0332                 1.3342
 Frc consts  --      1.0840                 0.8739                 0.6855
 IR Inten    --      1.0619                 4.8766                 1.6850

                     46                     47                     48
                      A                      A                      A
 Frequencies --    954.5521               960.2086               988.0241
 Red. masses --      2.8218                 1.2283                 1.5848
 Frc consts  --      1.5149                 0.6672                 0.9115
 IR Inten    --     95.5927                 0.1072                 2.3095

                     49                     50                     51
                      A                      A                      A
 Frequencies --    995.3357              1025.2419              1033.7623
 Red. masses --      1.7259                 1.4679                 1.3504
 Frc consts  --      1.0074                 0.9091                 0.8503
 IR Inten    --      1.4652                17.2212                49.7050

                     52                     53                     54
                      A                      A                      A
 Frequencies --   1045.9808              1056.9652              1075.5716
 Red. masses --      4.2995                 2.0686                 2.1122
 Frc consts  --      2.7715                 1.3616                 1.4397
 IR Inten    --     12.8200                41.6296                 3.8280

                     55                     56                     57
                      A                      A                      A
 Frequencies --   1077.0084              1083.1129              1103.4528
 Red. masses --      3.4608                 1.8682                 1.8970
 Frc consts  --      2.3652                 1.2913                 1.3609
 IR Inten    --    156.7999                27.2118                22.7254

                     58                     59                     60
                      A                      A                      A
 Frequencies --   1135.4968              1171.8882              1189.6723
 Red. masses --      2.0258                 1.2657                 1.5136
 Frc consts  --      1.5389                 1.0241                 1.2621
 IR Inten    --     21.2697                 4.9014                 7.1083

                     61                     62                     63
                      A                      A                      A
 Frequencies --   1191.0682              1279.6829              1286.8719
 Red. masses --      1.1000                 1.2383                 1.2125
 Frc consts  --      0.9195                 1.1947                 1.1830
 IR Inten    --      6.9173                 0.8657                 1.4072

                     64                     65                     66
                      A                      A                      A
 Frequencies --   1291.6656              1310.6106              1317.8777
 Red. masses --      2.0192                 1.4175                 1.3409
 Frc consts  --      1.9849                 1.4346                 1.3721
 IR Inten    --      7.4729                 6.7873                 2.1463

                     67                     68                     69
                      A                      A                      A
 Frequencies --   1320.3646              1342.3441              1361.5556
 Red. masses --      1.1436                 2.4599                 3.0579
 Frc consts  --      1.1747                 2.6115                 3.3400
 IR Inten    --      2.3010                31.7218                 9.5841

                     70                     71                     72
                      A                      A                      A
 Frequencies --   1420.3370              1440.2208              1442.0570
 Red. masses --      1.2196                 1.2091                 1.2045
 Frc consts  --      1.4496                 1.4776                 1.4758
 IR Inten    --      7.0133                 1.8747                 0.7198

                     73                     74                     75
                      A                      A                      A
 Frequencies --   1447.7855              1480.4596              1484.9394
 Red. masses --      1.3105                 1.0851                 1.0828
 Frc consts  --      1.6184                 1.4012                 1.4067
 IR Inten    --     21.5323                 4.1017                 7.6544

                     76                     77                     78
                      A                      A                      A
 Frequencies --   1492.6799              1513.8884              1527.1797
 Red. masses --      2.3751                 1.0403                 1.0924
 Frc consts  --      3.1180                 1.4048                 1.5011
 IR Inten    --     16.9042                 6.5395                 1.3415

                     79                     80                     81
                      A                      A                      A
 Frequencies --   1527.6205              1527.6525              1531.9843
 Red. masses --      1.1035                 2.0462                 1.0410
 Frc consts  --      1.5172                 2.8134                 1.4395
 IR Inten    --      0.4849                51.3415                 4.1195

                     82                     83                     84
                      A                      A                      A
 Frequencies --   1533.3602              1535.2430              1549.1673
 Red. masses --      1.0443                 1.0465                 1.0843
 Frc consts  --      1.4466                 1.4532                 1.5332
 IR Inten    --      9.5564                 4.6591                 5.6287

                     85                     86                     87
                      A                      A                      A
 Frequencies --   1622.1399              1641.5640              1673.1201
 Red. masses --      4.9412                 2.8152                 1.5262
 Frc consts  --      7.6605                 4.4697                 2.5172
 IR Inten    --      0.2539                 1.6267               126.7466

                     88                     89                     90
                      A                      A                      A
 Frequencies --   3040.9862              3052.7708              3055.8176
 Red. masses --      1.0582                 1.0609                 1.0588
 Frc consts  --      5.7654                 5.8254                 5.8254
 IR Inten    --     20.2740                 7.2265                 4.2359

                     91                     92                     93
                      A                      A                      A
 Frequencies --   3060.9615              3061.8012              3062.1970
 Red. masses --      1.0351                 1.0363                 1.0352
 Frc consts  --      5.7139                 5.7238                 5.7192
 IR Inten    --     19.3997                29.6525                18.6422

                     94                     95                     96
                      A                      A                      A
 Frequencies --   3085.5237              3091.1538              3103.9684
 Red. masses --      1.1074                 1.1024                 1.1027
 Frc consts  --      6.2115                 6.2064                 6.2596
 IR Inten    --     12.9932                 1.0604                 5.2436

                     97                     98                     99
                      A                      A                      A
 Frequencies --   3126.0797              3128.2961              3133.8369
 Red. masses --      1.1024                 1.1027                 1.1023
 Frc consts  --      6.3470                 6.3578                 6.3780
 IR Inten    --     13.1155                31.1439                18.4405

                    100                    101                    102
                      A                      A                      A
 Frequencies --   3138.3776              3140.2639              3140.9044
 Red. masses --      1.1030                 1.1035                 1.1045
 Frc consts  --      6.4006                 6.4114                 6.4196
 IR Inten    --     21.5375                18.5405                22.2880

                    103                    104                    105
                      A                      A                      A
 Frequencies --   3166.7059              3184.2894              3196.0667
 Red. masses --      1.0863                 1.0878                 1.0918
 Frc consts  --      6.4184                 6.4987                 6.5711
 IR Inten    --     14.4231                12.6087                32.0695

                    106                    107                    108
                      A                      A                      A
 Frequencies --   3209.6004              3535.0577              3650.3254
 Red. masses --      1.0966                 1.0481                 1.0982
 Frc consts  --      6.6555                 7.7166                 8.6216
 IR Inten    --     26.4458                25.0194                22.0869

 - Thermochemistry -
 -------------------
 Temperature   298.150 Kelvin.  Pressure   1.00000 Atm.
 Atom     1 has atomic number 79 and mass 196.96660

 Molecular mass:   455.07475 amu.
 Principal axes and moments of inertia in atomic units:
                           1         2         3
     Eigenvalues --  3908.68969********************
           X            0.99999   0.00173  -0.00321
           Y           -0.00210   0.99278  -0.11992
           Z            0.00298   0.11993   0.99278
 This molecule is an asymmetric top.
 Rotational symmetry number  1.
 Warning -- assumption of classical behavior for rotation
           may cause significant error
 Rotational temperatures (Kelvin)      0.02216     0.00758     0.00724
 Rotational constants (GHZ):           0.46173     0.15792     0.15087
 Zero-point vibrational energy     829513.0 (Joules/Mol)
                                  198.25836 (Kcal/Mol)
 Warning -- explicit consideration of  33 degrees of freedom as
           vibrations may cause significant error
 Vibrational temperatures:     12.28    23.22    32.25    47.42    67.86
          (Kelvin)             78.62    86.74   101.51   125.77   149.82
                              182.47   192.18   217.37   242.85   294.32
                              310.98   346.60   361.93   375.19   384.31
                              400.92   407.49   493.08   522.60   547.21
                              555.69   571.62   661.38   672.49   675.86
                              779.68   812.43   849.54   946.13   983.98
                              986.58  1051.85  1064.73  1091.45  1103.34
                             1143.33  1187.75  1217.31  1228.84  1343.63
                             1373.39  1381.52  1421.54  1432.06  1475.09
                             1487.35  1504.93  1520.74  1547.51  1549.57
                             1558.36  1587.62  1633.72  1686.08  1711.67
                             1713.68  1841.18  1851.52  1858.42  1885.67
                             1896.13  1899.71  1931.33  1958.97  2043.55
                             2072.15  2074.80  2083.04  2130.05  2136.49
                             2147.63  2178.15  2197.27  2197.90  2197.95
                             2204.18  2206.16  2208.87  2228.90  2333.89
                             2361.84  2407.24  4375.30  4392.25  4396.63
                             4404.04  4405.24  4405.81  4439.37  4447.48
                             4465.91  4497.73  4500.91  4508.89  4515.42
                             4518.13  4519.06  4556.18  4581.48  4598.42
                             4617.89  5086.15  5252.00

 Zero-point correction=                           0.315945 (Hartree/Particle)
 Thermal correction to Energy=                    0.338328
 Thermal correction to Enthalpy=                  0.339272
 Thermal correction to Gibbs Free Energy=         0.258459
 Sum of electronic and zero-point Energies=          -1474.685360
 Sum of electronic and thermal Energies=             -1474.662977
 Sum of electronic and thermal Enthalpies=           -1474.662032
 Sum of electronic and thermal Free Energies=        -1474.742845

                     E (Thermal)             CV                S
                      KCal/Mol        Cal/Mol-Kelvin    Cal/Mol-Kelvin
 Total                  212.304             78.244            170.084
 Electronic               0.000              0.000              0.000
 Translational            0.889              2.981             44.235
 Rotational               0.889              2.981             34.634
 Vibrational            210.527             72.282             91.215
 Vibration     1          0.593              1.987              8.326
 Vibration     2          0.593              1.986              7.060
 Vibration     3          0.593              1.985              6.408
 Vibration     4          0.594              1.983              5.643
 Vibration     5          0.595              1.979              4.933
 Vibration     6          0.596              1.976              4.642
 Vibration     7          0.597              1.973              4.448
 Vibration     8          0.598              1.968              4.138
 Vibration     9          0.601              1.958              3.717
 Vibration    10          0.605              1.946              3.375
 Vibration    11          0.611              1.926              2.994
 Vibration    12          0.613              1.920              2.894
 Vibration    13          0.618              1.901              2.659
 Vibration    14          0.625              1.881              2.449
 Vibration    15          0.640              1.833              2.092
 Vibration    16          0.645              1.816              1.991
 Vibration    17          0.658              1.778              1.796
 Vibration    18          0.664              1.760              1.720
 Vibration    19          0.669              1.744              1.657
 Vibration    20          0.672              1.733              1.615
 Vibration    21          0.679              1.713              1.542
 Vibration    22          0.682              1.705              1.514
 Vibration    23          0.722              1.590              1.200
 Vibration    24          0.737              1.548              1.108
 Vibration    25          0.750              1.512              1.038
 Vibration    26          0.755              1.500              1.015
 Vibration    27          0.764              1.476              0.973
 Vibration    28          0.818              1.339              0.767
 Vibration    29          0.825              1.322              0.745
 Vibration    30          0.827              1.317              0.738
 Vibration    31          0.897              1.157              0.561
 Vibration    32          0.920              1.108              0.515
 Vibration    33          0.948              1.052              0.466

 Optimization completed.
    -- Stationary point found.
 Normal termination of Gaussian 09 at Wed Jul 26 15:37:44 2023.
