 Gaussian 09, Revision D.01,
 Gaussian 09:  EM64L-G09RevD.01 24-Apr-2013

 ----------------------------
 # opt freq=noraman b3lyp/gen
 ----------------------------

 -------------------
 Title Card Required
 -------------------
 Symbolic Z-matrix:
 Charge =  0 Multiplicity = 1

 SCF Done:  E(RB3LYP) =  -4105.46048696     A.U. after   16 cycles
 SCF Done:  E(RB3LYP) =  -4105.47234903     A.U. after   13 cycles
 SCF Done:  E(RB3LYP) =  -4105.47297869     A.U. after   12 cycles
 SCF Done:  E(RB3LYP) =  -4105.44898666     A.U. after   14 cycles
 SCF Done:  E(RB3LYP) =  -4105.47301593     A.U. after   10 cycles
 SCF Done:  E(RB3LYP) =  -4105.47290648     A.U. after   12 cycles
 SCF Done:  E(RB3LYP) =  -4105.47287777     A.U. after   12 cycles
 SCF Done:  E(RB3LYP) =  -4105.47310932     A.U. after   12 cycles
 SCF Done:  E(RB3LYP) =  -4105.47311416     A.U. after   11 cycles
 SCF Done:  E(RB3LYP) =  -4105.47312015     A.U. after   10 cycles
 SCF Done:  E(RB3LYP) =  -4105.47312268     A.U. after    8 cycles
 SCF Done:  E(RB3LYP) =  -4105.47312285     A.U. after    9 cycles
 SCF Done:  E(RB3LYP) =  -4105.47312312     A.U. after    7 cycles
 SCF Done:  E(RB3LYP) =  -4105.47312315     A.U. after    7 cycles
 SCF Done:  E(RB3LYP) =  -4105.47312329     A.U. after    7 cycles
 Optimization completed.
    -- Stationary point found.
 Normal termination of Gaussian 09 at Tue Oct 25 10:14:55 2022.

 ------------------------------------------------------------------
 #N Geom=AllCheck Guess=TCheck SCRF=Check GenChk RB3LYP/ChkBas Freq
 ------------------------------------------------------------------

 Structure from the checkpoint file:  "/home/scr/helius/Gau-32419.chk"
 -------------------
 Title Card Required
 -------------------
 Charge =  0 Multiplicity = 1

                         Standard orientation:
 ---------------------------------------------------------------------
 Center     Atomic      Atomic             Coordinates (Angstroms)
 Number     Number       Type             X           Y           Z
 ---------------------------------------------------------------------
      1          7           0        6.710142    1.511000   -0.089113
      2          6           0        5.317120    1.159787    0.193623
      3          6           0        4.764727    0.183574   -0.861576
      4          8           0        5.030085    0.347804   -2.047164
      5          6           0        4.484572    2.461069    0.171269
      6          8           0        3.114853    2.259810    0.484147
      7          7           0        3.984067   -0.884226   -0.477629
      8          6           0        3.592765   -1.295046    0.861586
      9          6           0        2.526163   -0.411925    1.529323
     10          8           0        2.808792    0.211259    2.550310
     11          7           0        1.256465   -0.340466    1.008206
     12          6           0        0.816381   -0.603135   -0.367024
     13          6           0       -0.576124   -0.005922   -0.611327
     14          8           0       -0.880419    0.468269   -1.696052
     15          6           0        0.727409   -2.105316   -0.748952
     16         16           0       -0.362671   -3.195588    0.279883
     17          7           0       -1.452639   -0.139496    0.435132
     18          6           0       -2.889825   -0.264833    0.179291
     19          6           0       -3.333728   -1.710190    0.429721
     20          6           0       -3.647569    0.694159    1.122406
     21          8           0       -3.980162    0.332102    2.245079
     22          7           0       -3.887925    1.950631    0.657257
     23          6           0       -3.508004    2.528835   -0.616378
     24          6           0       -3.606612    4.040344   -0.512485
     25          8           0       -3.998206    4.643290    0.462002
     26          8           0       -3.219686    4.630257   -1.657896
     27          1           0        4.966411    3.175312    0.851671
     28          1           0        4.513016    2.880122   -0.839693
     29          1           0        3.062090    2.002870    1.420873
     30          1           0        5.262280    0.739389    1.203292
     31          1           0        6.786846    1.657814   -1.096618
     32          1           0        7.315487    0.718538    0.120373
     33          1           0        4.444971   -1.284184    1.545498
     34          1           0        3.240637   -2.329482    0.806103
     35          1           0        3.716516   -1.468797   -1.260580
     36          1           0        1.709256   -2.582991   -0.679957
     37          1           0        0.406507   -2.173656   -1.791732
     38          1           0        1.485185   -0.116692   -1.084084
     39          1           0        0.742855    0.396038    1.482772
     40          1           0       -4.385988   -1.846381    0.156891
     41          1           0       -3.232513   -1.971216    1.484256
     42          1           0       -3.035918   -0.000168   -0.869293
     43          1           0       -1.123366   -0.674809    1.232179
     44          1           0       -4.169371    2.212685   -1.437159
     45          1           0       -2.489810    2.257877   -0.917959
     46          1           0       -4.301601    2.595631    1.324225
     47          1           0       -3.314801    5.592939   -1.526477
     48         34           0       -2.384483   -3.073655   -0.667057
 ---------------------------------------------------------------------

 SCF Done:  E(RB3LYP) =  -4105.47312329     A.U. after    1 cycles

 The electronic state is 1-A.
 Alpha  occ. eigenvalues -- -453.59077 -88.89616 -57.31116 -52.08670 -52.08537
 Alpha  occ. eigenvalues --  -52.08239 -19.21627 -19.16492 -19.14407 -19.14222
 Alpha  occ. eigenvalues --  -19.13893 -19.12369 -19.12109 -14.38348 -14.38306
 Alpha  occ. eigenvalues --  -14.37655 -14.36928 -14.31267 -10.34650 -10.31620
 Alpha  occ. eigenvalues --  -10.31557 -10.30045 -10.29224 -10.26465 -10.25538
 Alpha  occ. eigenvalues --  -10.25481 -10.25231 -10.24703 -10.23225 -10.22416
 Alpha  occ. eigenvalues --  -10.22068  -7.97116  -7.66299  -5.93570  -5.93182
 Alpha  occ. eigenvalues --   -5.92476  -5.79461  -5.78931  -5.77937  -2.15602
 Alpha  occ. eigenvalues --   -2.15546  -2.14718  -2.14294  -2.14132  -1.13321
 Alpha  occ. eigenvalues --   -1.06857  -1.06364  -1.04819  -1.04479  -1.04305
 Alpha  occ. eigenvalues --   -1.01689  -0.96459  -0.94736  -0.93989  -0.93598
 Alpha  occ. eigenvalues --   -0.89054  -0.82932  -0.81083  -0.77031  -0.75954
 Alpha  occ. eigenvalues --   -0.74701  -0.72968  -0.72248  -0.66060  -0.65280
 Alpha  occ. eigenvalues --   -0.64091  -0.62263  -0.61748  -0.60087  -0.59615
 Alpha  occ. eigenvalues --   -0.57938  -0.56336  -0.53687  -0.52588  -0.52323
 Alpha  occ. eigenvalues --   -0.52028  -0.51389  -0.50861  -0.50566  -0.50331
 Alpha  occ. eigenvalues --   -0.49924  -0.48761  -0.47049  -0.46695  -0.46192
 Alpha  occ. eigenvalues --   -0.45528  -0.45345  -0.45239  -0.44324  -0.43867
 Alpha  occ. eigenvalues --   -0.43490  -0.42858  -0.42712  -0.42056  -0.41802
 Alpha  occ. eigenvalues --   -0.41411  -0.40704  -0.39924  -0.39725  -0.39015
 Alpha  occ. eigenvalues --   -0.38650  -0.37688  -0.37540  -0.35927  -0.34464
 Alpha  occ. eigenvalues --   -0.33183  -0.32859  -0.30724  -0.29998  -0.29810
 Alpha  occ. eigenvalues --   -0.28845  -0.28052  -0.27489  -0.26924  -0.26807
 Alpha  occ. eigenvalues --   -0.26662  -0.26231  -0.25897  -0.24430  -0.24106
 Alpha virt. eigenvalues --   -0.06349  -0.02959  -0.01555  -0.01181  -0.00113
 Alpha virt. eigenvalues --    0.00594   0.01610   0.02263   0.04810   0.05601
 Alpha virt. eigenvalues --    0.06898   0.08289   0.08908   0.09459   0.10035

 Mulliken charges:
               1
     1  N   -0.704327
     2  C   -0.108131
     3  C    0.545843
     4  O   -0.475749
     5  C   -0.016468
     6  O   -0.653798
     7  N   -0.582646
     8  C   -0.246840
     9  C    0.558516
    10  O   -0.477048
    11  N   -0.589722
    12  C   -0.013207
    13  C    0.522496
    14  O   -0.458173
    15  C   -0.460379
    16  S    0.072628
    17  N   -0.573617
    18  C   -0.067295
    19  C   -0.374083
    20  C    0.558676
    21  O   -0.465510
    22  N   -0.589609
    23  C   -0.212940
    24  C    0.537748
    25  O   -0.415240
    26  O   -0.561498
    27  H    0.149367
    28  H    0.157756
    29  H    0.416734
    30  H    0.143870
    31  H    0.317767
    32  H    0.301542
    33  H    0.196879
    34  H    0.181757
    35  H    0.332732
    36  H    0.175422
    37  H    0.221967
    38  H    0.211065
    39  H    0.346652
    40  H    0.191828
    41  H    0.214456
    42  H    0.193597
    43  H    0.355867
    44  H    0.192467
    45  H    0.230328
    46  H    0.358722
    47  H    0.427274
    48  Se  -0.067676
 Sum of Mulliken charges =   0.00000

 Dipole moment (field-independent basis, Debye):
    X=             -0.8317    Y=             -1.5653    Z=             -1.7370  Tot=              2.4818
 Quadrupole moment (field-independent basis, Debye-Ang):
   XX=           -175.9260   YY=           -169.5347   ZZ=           -196.3590
   XY=            -19.0725   XZ=             18.1496   YZ=             -5.4863

  Exact polarizability: 261.572   5.409 224.055  -6.911  -4.703 193.395
 Approx polarizability: 355.416   3.284 309.303  -8.434 -11.912 362.538

                      1                      2                      3
                      A                      A                      A
 Frequencies --      9.4685                15.1101                24.9220
 Red. masses --      7.9170                 7.6178                 6.9542
 Frc consts  --      0.0004                 0.0010                 0.0025
 IR Inten    --      1.2970                 2.2432                 0.9591

                      4                      5                      6
                      A                      A                      A
 Frequencies --     34.3368                38.7859                45.8366
 Red. masses --      7.1407                 7.1269                 7.9315
 Frc consts  --      0.0050                 0.0063                 0.0098
 IR Inten    --      1.0794                 0.3928                 1.9789

                      7                      8                      9
                      A                      A                      A
 Frequencies --     47.6738                63.0561                65.3322
 Red. masses --      8.2564                 6.1520                10.5415
 Frc consts  --      0.0111                 0.0144                 0.0265
 IR Inten    --      0.9525                 1.1365                 0.9085

                     10                     11                     12
                      A                      A                      A
 Frequencies --     75.4777                92.5065               103.8097
 Red. masses --      7.0294                11.7392                 8.3693
 Frc consts  --      0.0236                 0.0592                 0.0531
 IR Inten    --      4.2826                 1.2692                 2.4530

                     13                     14                     15
                      A                      A                      A
 Frequencies --    126.5075               127.9789               140.9775
 Red. masses --      6.6662                 6.6259                 3.6497
 Frc consts  --      0.0629                 0.0639                 0.0427
 IR Inten    --      0.5204                 1.5857                 1.2261

                     16                     17                     18
                      A                      A                      A
 Frequencies --    146.2355               151.8560               166.0516
 Red. masses --      5.6871                 9.0743                 6.3680
 Frc consts  --      0.0717                 0.1233                 0.1035
 IR Inten    --      5.9303                 9.9223                 3.2767

                     19                     20                     21
                      A                      A                      A
 Frequencies --    175.6044               195.9936               205.8273
 Red. masses --      4.6419                 4.9035                 5.0441
 Frc consts  --      0.0843                 0.1110                 0.1259
 IR Inten    --      1.2081                 1.4533                 3.2479

                     22                     23                     24
                      A                      A                      A
 Frequencies --    216.4923               225.3423               241.2420
 Red. masses --      3.3867                 6.2745                 3.5498
 Frc consts  --      0.0935                 0.1877                 0.1217
 IR Inten    --      0.6494                 8.2677                 3.7787

                     25                     26                     27
                      A                      A                      A
 Frequencies --    254.7542               278.1034               289.8166
 Red. masses --      6.6915                 6.0469                 1.5328
 Frc consts  --      0.2559                 0.2755                 0.0759
 IR Inten    --      5.1172                 7.7353                28.6456

                     28                     29                     30
                      A                      A                      A
 Frequencies --    309.8290               320.6812               325.6219
 Red. masses --      3.7631                 2.1117                 2.9301
 Frc consts  --      0.2128                 0.1279                 0.1830
 IR Inten    --      1.7453                14.2316                20.6670

                     31                     32                     33
                      A                      A                      A
 Frequencies --    339.1277               379.9760               385.2720
 Red. masses --      3.0974                15.3388                 5.7465
 Frc consts  --      0.2099                 1.3048                 0.5026
 IR Inten    --      5.8599                 1.9163                10.8135

                     34                     35                     36
                      A                      A                      A
 Frequencies --    394.3845               418.4801               452.2382
 Red. masses --      6.9588                 3.8577                 3.4555
 Frc consts  --      0.6377                 0.3980                 0.4164
 IR Inten    --      4.8772                11.8863                 3.8930

                     37                     38                     39
                      A                      A                      A
 Frequencies --    457.6296               489.5080               519.6248
 Red. masses --      3.7432                 4.4724                 1.7210
 Frc consts  --      0.4619                 0.6314                 0.2738
 IR Inten    --     10.3791                26.3437                24.1157

                     40                     41                     42
                      A                      A                      A
 Frequencies --    522.0647               544.1344               552.2612
 Red. masses --      3.1967                 4.3551                 1.2329
 Frc consts  --      0.5133                 0.7597                 0.2215
 IR Inten    --     10.6430                14.4515               129.9827

                     43                     44                     45
                      A                      A                      A
 Frequencies --    568.9037               577.6792               582.7819
 Red. masses --      3.4954                 2.9322                 1.3160
 Frc consts  --      0.6665                 0.5765                 0.2633
 IR Inten    --     36.8211                43.2544               259.3285

                     46                     47                     48
                      A                      A                      A
 Frequencies --    616.7960               620.1410               627.0996
 Red. masses --      5.3646                 2.1958                 3.6253
 Frc consts  --      1.2025                 0.4975                 0.8400
 IR Inten    --      8.9918                26.8410                70.9740

                     49                     50                     51
                      A                      A                      A
 Frequencies --    636.3140               668.8805               678.1584
 Red. masses --      1.4817                 2.7731                 1.5044
 Frc consts  --      0.3535                 0.7310                 0.4076
 IR Inten    --     50.0895                58.0782               129.2824

                     52                     53                     54
                      A                      A                      A
 Frequencies --    692.7178               710.0508               725.5912
 Red. masses --      2.3264                 2.8967                 3.5804
 Frc consts  --      0.6577                 0.8605                 1.1106
 IR Inten    --     57.5381                34.1397                24.5990

                     55                     56                     57
                      A                      A                      A
 Frequencies --    743.2058               760.8794               777.1540
 Red. masses --      2.2257                 4.1013                 2.9344
 Frc consts  --      0.7243                 1.3990                 1.0442
 IR Inten    --     45.4853                10.2036                46.3306

                     58                     59                     60
                      A                      A                      A
 Frequencies --    779.9274               793.9287               827.9600
 Red. masses --      4.3213                 4.2190                 1.7566
 Frc consts  --      1.5487                 1.5668                 0.7095
 IR Inten    --     19.3055                 1.7618                11.0354

                     61                     62                     63
                      A                      A                      A
 Frequencies --    852.3568               893.1972               902.9584
 Red. masses --      3.9172                 3.7121                 3.2506
 Frc consts  --      1.6768                 1.7449                 1.5615
 IR Inten    --     30.6341                 3.6872                11.7443

                     64                     65                     66
                      A                      A                      A
 Frequencies --    915.3046               932.0681               939.5189
 Red. masses --      3.0530                 1.6912                 3.0484
 Frc consts  --      1.5070                 0.8656                 1.5854
 IR Inten    --     13.1572               192.0994                 6.5341

                     67                     68                     69
                      A                      A                      A
 Frequencies --    971.0213               997.1217              1008.2167
 Red. masses --      2.2858                 2.0066                 2.2980
 Frc consts  --      1.2699                 1.1755                 1.3763
 IR Inten    --     22.6206                 3.2618                 3.1200

                     70                     71                     72
                      A                      A                      A
 Frequencies --   1020.2125              1027.0462              1043.7208
 Red. masses --      2.1559                 2.1222                 2.1820
 Frc consts  --      1.3221                 1.3189                 1.4005
 IR Inten    --      8.6947                 2.3724                72.6832

                     73                     74                     75
                      A                      A                      A
 Frequencies --   1094.7138              1101.5018              1127.0251
 Red. masses --      4.6052                 3.5573                 2.5116
 Frc consts  --      3.2516                 2.5430                 1.8796
 IR Inten    --     39.9959                 8.4800                48.8179

                     76                     77                     78
                      A                      A                      A
 Frequencies --   1135.1193              1147.8790              1160.8412
 Red. masses --      1.7055                 2.3793                 3.4029
 Frc consts  --      1.2947                 1.8471                 2.7018
 IR Inten    --      4.3242                15.5700                91.4196

                     79                     80                     81
                      A                      A                      A
 Frequencies --   1182.9958              1191.0558              1202.1527
 Red. masses --      1.3452                 1.5891                 1.8105
 Frc consts  --      1.1092                 1.3282                 1.5416
 IR Inten    --     21.9713                32.0383                95.1106

                     82                     83                     84
                      A                      A                      A
 Frequencies --   1205.4946              1241.3029              1242.7207
 Red. masses --      2.0133                 1.6718                 1.3326
 Frc consts  --      1.7238                 1.5178                 1.2125
 IR Inten    --    141.8198               150.8954                12.7269

                     85                     86                     87
                      A                      A                      A
 Frequencies --   1255.7405              1269.2300              1272.5139
 Red. masses --      1.3269                 1.1174                 1.3931
 Frc consts  --      1.2328                 1.0606                 1.3291
 IR Inten    --      9.2137                11.7760                36.5506

                     88                     89                     90
                      A                      A                      A
 Frequencies --   1298.6802              1311.5945              1319.1978
 Red. masses --      1.7222                 1.4468                 1.4663
 Frc consts  --      1.7113                 1.4664                 1.5034
 IR Inten    --     44.4620                84.8375                27.5916

                     91                     92                     93
                      A                      A                      A
 Frequencies --   1330.8776              1342.2735              1357.7727
 Red. masses --      1.3698                 1.5552                 1.2806
 Frc consts  --      1.4295                 1.6508                 1.3910
 IR Inten    --     18.7272                12.0222               103.3187

                     94                     95                     96
                      A                      A                      A
 Frequencies --   1362.7997              1374.3167              1391.8848
 Red. masses --      1.3419                 1.3385                 1.3849
 Frc consts  --      1.4683                 1.4895                 1.5808
 IR Inten    --     14.5046                19.7759                13.7586

                     97                     98                     99
                      A                      A                      A
 Frequencies --   1400.9311              1409.1613              1413.6490
 Red. masses --      1.4452                 2.8191                 1.7905
 Frc consts  --      1.6711                 3.2982                 2.1082
 IR Inten    --     10.4507               139.4424                33.8431

                    100                    101                    102
                      A                      A                      A
 Frequencies --   1439.8543              1449.3543              1453.6847
 Red. masses --      3.0061                 1.2198                 1.4684
 Frc consts  --      3.6719                 1.5097                 1.8282
 IR Inten    --    283.6210                73.2075                 9.7642

                    103                    104                    105
                      A                      A                      A
 Frequencies --   1473.5828              1482.9397              1483.9860
 Red. masses --      1.1035                 1.1598                 1.5980
 Frc consts  --      1.4118                 1.5028                 2.0735
 IR Inten    --     17.1573                57.7321                61.9386

                    106                    107                    108
                      A                      A                      A
 Frequencies --   1495.8498              1504.3835              1513.3702
 Red. masses --      1.4426                 1.6063                 1.0937
 Frc consts  --      1.9019                 2.1419                 1.4758
 IR Inten    --     25.7917                 2.2351                25.3773

                    109                    110                    111
                      A                      A                      A
 Frequencies --   1527.0748              1531.7073              1566.9884
 Red. masses --      1.2701                 1.0847                 1.6230
 Frc consts  --      1.7451                 1.4994                 2.3480
 IR Inten    --     40.1215                 2.7561               115.7628

                    112                    113                    114
                      A                      A                      A
 Frequencies --   1708.1945              1762.6004              1777.6463
 Red. masses --      1.0883                 6.8748                 7.9968
 Frc consts  --      1.8709                12.5840                14.8888
 IR Inten    --     36.2712               388.8985               202.7114

                    115                    116                    117
                      A                      A                      A
 Frequencies --   1787.4510              1794.9637              1853.1889
 Red. masses --      9.0204                 8.9514                 9.7064
 Frc consts  --     16.9803                16.9922                19.6403
 IR Inten    --    545.4029                96.3501               241.5724

                    118                    119                    120
                      A                      A                      A
 Frequencies --   3026.6335              3049.8587              3085.7336
 Red. masses --      1.0701                 1.0631                 1.0654
 Frc consts  --      5.7756                 5.8260                 5.9770
 IR Inten    --     24.8352                55.1547                 6.2639

                    121                    122                    123
                      A                      A                      A
 Frequencies --   3088.7435              3088.9969              3093.0148
 Red. masses --      1.0676                 1.0751                 1.0674
 Frc consts  --      6.0008                 6.0441                 6.0166
 IR Inten    --     11.0334                 6.9226                15.5931

                    124                    125                    126
                      A                      A                      A
 Frequencies --   3096.4279              3099.3437              3119.5736
 Red. masses --      1.0926                 1.0802                 1.1030
 Frc consts  --      6.1720                 6.1138                 6.3244
 IR Inten    --      8.4051                 5.0510                25.4694

                    127                    128                    129
                      A                      A                      A
 Frequencies --   3136.8227              3137.5347              3145.3740
 Red. masses --      1.0860                 1.1050                 1.1049
 Frc consts  --      6.2959                 6.4087                 6.4406
 IR Inten    --      6.9987                15.5861                 2.8272

                    130                    131                    132
                      A                      A                      A
 Frequencies --   3165.0230              3458.3609              3541.5163
 Red. masses --      1.0997                 1.0499                 1.0915
 Frc consts  --      6.4904                 7.3985                 8.0661
 IR Inten    --      1.2047                 2.6276                 2.3692

                    133                    134                    135
                      A                      A                      A
 Frequencies --   3552.3034              3559.8423              3561.8745
 Red. masses --      1.0753                 1.0766                 1.0755
 Frc consts  --      7.9945                 8.0383                 8.0395
 IR Inten    --     25.5578                29.1950                92.5659

                    136                    137                    138
                      A                      A                      A
 Frequencies --   3583.9878              3683.8837              3697.3208
 Red. masses --      1.0763                 1.0642                 1.0667
 Frc consts  --      8.1456                 8.5087                 8.5911
 IR Inten    --     11.8500                73.8383                67.5232

 - Thermochemistry -
 -------------------
 Temperature   298.150 Kelvin.  Pressure   1.00000 Atm.
 Atom     1 has atomic number  7 and mass  14.00307

 Molecular mass:   471.03269 amu.
 Principal axes and moments of inertia in atomic units:
                           1         2         3
     Eigenvalues --  ******************************
           X            0.99949  -0.03180  -0.00145
           Y            0.03177   0.99937  -0.01554
           Z            0.00194   0.01548   0.99988
 This molecule is an asymmetric top.
 Rotational symmetry number  1.
 Warning -- assumption of classical behavior for rotation
           may cause significant error
 Rotational temperatures (Kelvin)      0.00792     0.00433     0.00319
 Rotational constants (GHZ):           0.16493     0.09025     0.06641
 Zero-point vibrational energy     990407.8 (Joules/Mol)
                                  236.71315 (Kcal/Mol)
 Warning -- explicit consideration of  47 degrees of freedom as
           vibrations may cause significant error
 Vibrational temperatures:     13.62    21.74    35.86    49.40    55.80
          (Kelvin)             65.95    68.59    90.72    94.00   108.60
                              133.10   149.36   182.02   184.13   202.83
                              210.40   218.49   238.91   252.66   281.99
                              296.14   311.48   324.22   347.09   366.53
                              400.13   416.98   445.77   461.39   468.50
                              487.93   546.70   554.32   567.43   602.10
                              650.67   658.43   704.29   747.62   751.13
                              782.89   794.58   818.52   831.15   838.49
                              887.43   892.24   902.26   915.51   962.37
                              975.72   996.67  1021.60  1043.96  1069.31
                             1094.73  1118.15  1122.14  1142.28  1191.25
                             1226.35  1285.11  1299.15  1316.92  1341.04
                             1351.76  1397.08  1434.63  1450.60  1467.86
                             1477.69  1501.68  1575.05  1584.81  1621.54
                             1633.18  1651.54  1670.19  1702.06  1713.66
                             1729.63  1734.44  1785.96  1788.00  1806.73
                             1826.14  1830.86  1868.51  1887.09  1898.03
                             1914.83  1931.23  1953.53  1960.76  1977.33
                             2002.61  2015.62  2027.47  2033.92  2071.63
                             2085.29  2091.53  2120.15  2133.62  2135.12
                             2152.19  2164.47  2177.40  2197.12  2203.78
                             2254.54  2457.71  2535.99  2557.63  2571.74
                             2582.55  2666.32  4354.65  4388.06  4439.68
                             4444.01  4444.37  4450.15  4455.06  4459.26
                             4488.36  4513.18  4514.21  4525.49  4553.76
                             4975.80  5095.45  5110.97  5121.81  5124.74
                             5156.55  5300.28  5319.61

 Zero-point correction=                           0.377226 (Hartree/Particle)
 Thermal correction to Energy=                    0.406173
 Thermal correction to Enthalpy=                  0.407117
 Thermal correction to Gibbs Free Energy=         0.312518
 Sum of electronic and zero-point Energies=          -4105.095897
 Sum of electronic and thermal Energies=             -4105.066950
 Sum of electronic and thermal Enthalpies=           -4105.066006
 Sum of electronic and thermal Free Energies=        -4105.160605

                     E (Thermal)             CV                S
                      KCal/Mol        Cal/Mol-Kelvin    Cal/Mol-Kelvin
 Total                  254.878            104.730            199.101
 Electronic               0.000              0.000              0.000
 Translational            0.889              2.981             44.338
 Rotational               0.889              2.981             37.028
 Vibrational            253.100             98.769            117.735
 Vibration     1          0.593              1.987              8.120
 Vibration     2          0.593              1.986              7.191
 Vibration     3          0.593              1.985              6.197
 Vibration     4          0.594              1.983              5.562
 Vibration     5          0.594              1.981              5.320
 Vibration     6          0.595              1.979              4.989
 Vibration     7          0.595              1.978              4.912
 Vibration     8          0.597              1.972              4.359
 Vibration     9          0.597              1.971              4.289
 Vibration    10          0.599              1.965              4.005
 Vibration    11          0.602              1.955              3.606
 Vibration    12          0.605              1.946              3.382
 Vibration    13          0.611              1.927              2.998
 Vibration    14          0.611              1.925              2.976
 Vibration    15          0.615              1.912              2.791
 Vibration    16          0.617              1.907              2.721
 Vibration    17          0.619              1.901              2.649
 Vibration    18          0.624              1.884              2.480
 Vibration    19          0.628              1.872              2.375
 Vibration    20          0.636              1.845              2.170
 Vibration    21          0.640              1.832              2.080
 Vibration    22          0.645              1.816              1.988
 Vibration    23          0.650              1.802              1.916
 Vibration    24          0.658              1.777              1.794
 Vibration    25          0.665              1.755              1.697
 Vibration    26          0.679              1.714              1.545
 Vibration    27          0.686              1.693              1.475
 Vibration    28          0.699              1.655              1.363
 Vibration    29          0.706              1.634              1.307
 Vibration    30          0.710              1.624              1.282
 Vibration    31          0.719              1.597              1.216
 Vibration    32          0.750              1.513              1.039
 Vibration    33          0.754              1.502              1.018
 Vibration    34          0.761              1.482              0.984
 Vibration    35          0.781              1.430              0.897
 Vibration    36          0.811              1.356              0.789
 Vibration    37          0.816              1.344              0.773
 Vibration    38          0.845              1.273              0.685
 Vibration    39          0.875              1.207              0.611
 Vibration    40          0.877              1.201              0.605
 Vibration    41          0.899              1.153              0.556
 Vibration    42          0.908              1.135              0.540
 Vibration    43          0.925              1.099              0.506
 Vibration    44          0.934              1.080              0.490
 Vibration    45          0.940              1.069              0.480
 Vibration    46          0.976              0.996              0.422
 Vibration    47          0.980              0.989              0.416

 Normal termination of Gaussian 09 at Tue Oct 25 10:49:11 2022.
