 Gaussian 09, Revision D.01,
 Gaussian 09:  EM64L-G09RevD.01 24-Apr-2013

 ----------------------------------------
 # opt freq=noraman b3lyp/gen pseudo=read
 ----------------------------------------

 --
 af
 --
 Symbolic Z-matrix:
 Charge =  0 Multiplicity = 1

 SCF Done:  E(RB3LYP) =  -1327.21668755     A.U. after   13 cycles
 SCF Done:  E(RB3LYP) =  -1327.21703261     A.U. after   11 cycles
 SCF Done:  E(RB3LYP) =  -1327.21515872     A.U. after   12 cycles
 SCF Done:  E(RB3LYP) =  -1327.21774425     A.U. after   10 cycles
 SCF Done:  E(RB3LYP) =  -1327.21781930     A.U. after   10 cycles
 SCF Done:  E(RB3LYP) =  -1327.20654721     A.U. after   12 cycles
 SCF Done:  E(RB3LYP) =  -1327.21791276     A.U. after    9 cycles
 SCF Done:  E(RB3LYP) =  -1327.21797831     A.U. after   10 cycles
 SCF Done:  E(RB3LYP) =  -1327.21797937     A.U. after    8 cycles
 SCF Done:  E(RB3LYP) =  -1327.21797949     A.U. after    7 cycles
 SCF Done:  E(RB3LYP) =  -1327.21797959     A.U. after    7 cycles
 SCF Done:  E(RB3LYP) =  -1327.21797964     A.U. after    7 cycles
 Optimization completed.
    -- Stationary point found.
 Normal termination of Gaussian 09 at Wed May 17 09:29:11 2023.

 ------------------------------------------------------------------
 #N Geom=AllCheck Guess=TCheck SCRF=Check GenChk RB3LYP/ChkBas Freq
 ------------------------------------------------------------------

 Structure from the checkpoint file:  "/home/scr/helius/Gau-13653.chk"
 --
 af
 --
 Charge =  0 Multiplicity = 1

                         Standard orientation:
 ---------------------------------------------------------------------
 Center     Atomic      Atomic             Coordinates (Angstroms)
 Number     Number       Type             X           Y           Z
 ---------------------------------------------------------------------
      1         79           0        1.348764   -0.238157   -0.023343
      2         17           0        3.372298   -1.346264   -0.031708
      3         15           0       -0.633963    0.883513   -0.015409
      4          6           0       -2.123041   -0.182808   -0.128517
      5          6           0       -3.414211    0.371513   -0.090062
      6          6           0       -1.981909   -1.571578   -0.266650
      7          6           0       -4.538106   -0.447472   -0.188367
      8          1           0       -3.550668    1.444761    0.016543
      9          6           0       -3.109304   -2.389736   -0.366510
     10          1           0       -0.988321   -2.010267   -0.295466
     11          6           0       -4.386570   -1.829866   -0.327294
     12          1           0       -5.531032   -0.007493   -0.156985
     13          1           0       -2.985672   -3.463623   -0.473083
     14          1           0       -5.263301   -2.467010   -0.403957
     15          6           0       -0.887605    1.918866    1.503976
     16          6           0       -0.862342    1.109077    2.806219
     17          1           0       -1.835733    2.461651    1.398894
     18          1           0       -0.085225    2.665606    1.504440
     19          1           0       -1.004005    1.773272    3.665588
     20          1           0       -1.658619    0.357949    2.825962
     21          1           0        0.095001    0.592467    2.931077
     22          6           0       -0.815855    2.080134   -1.425328
     23          6           0        0.325329    3.100747   -1.526769
     24          1           0       -1.785414    2.584581   -1.327508
     25          1           0       -0.862374    1.468253   -2.333392
     26          1           0        0.179738    3.738170   -2.405603
     27          1           0        0.370160    3.754284   -0.649033
     28          1           0        1.295122    2.602359   -1.627366
 ---------------------------------------------------------------------

 SCF Done:  E(RB3LYP) =  -1327.21797964     A.U. after    1 cycles

 The electronic state is 1-A.
 Alpha  occ. eigenvalues -- -101.44780 -77.12972 -10.22122 -10.21794 -10.21595
 Alpha  occ. eigenvalues --  -10.21576 -10.21202 -10.21181 -10.21131 -10.20827
 Alpha  occ. eigenvalues --  -10.19553 -10.19215  -9.37905  -7.13920  -7.13400
 Alpha  occ. eigenvalues --   -7.13398  -6.60867  -4.77027  -4.76988  -4.76807
 Alpha  occ. eigenvalues --   -4.16783  -2.31519  -2.29290  -2.29249  -0.88020
 Alpha  occ. eigenvalues --   -0.81810  -0.78177  -0.77147  -0.77053  -0.73381
 Alpha  occ. eigenvalues --   -0.68939  -0.64323  -0.63332  -0.62538  -0.57970
 Alpha  occ. eigenvalues --   -0.53625  -0.48723  -0.48043  -0.47285  -0.47139
 Alpha  occ. eigenvalues --   -0.46203  -0.44572  -0.44441  -0.42121  -0.40588
 Alpha  occ. eigenvalues --   -0.40187  -0.38882  -0.38853  -0.38169  -0.37586
 Alpha  occ. eigenvalues --   -0.36946  -0.35628  -0.35361  -0.33039  -0.32785
 Alpha  occ. eigenvalues --   -0.30243  -0.30187  -0.28860  -0.27744  -0.27637
 Alpha  occ. eigenvalues --   -0.26824  -0.24023  -0.23978
 Alpha virt. eigenvalues --   -0.04665  -0.02908  -0.01115  -0.00500   0.01225
 Alpha virt. eigenvalues --    0.04585   0.05390   0.06313   0.07182   0.08817
 Alpha virt. eigenvalues --    0.09356   0.10397   0.10710   0.12228   0.12815

 Mulliken charges:
               1
     1  Au   0.007527
     2  Cl  -0.389197
     3  P    0.411117
     4  C   -0.070600
     5  C   -0.157590
     6  C   -0.171614
     7  C   -0.121135
     8  H    0.135955
     9  C   -0.116554
    10  H    0.201856
    11  C   -0.124895
    12  H    0.142047
    13  H    0.149750
    14  H    0.145066
    15  C   -0.443222
    16  C   -0.470126
    17  H    0.169562
    18  H    0.189688
    19  H    0.160226
    20  H    0.169305
    21  H    0.203771
    22  C   -0.444956
    23  C   -0.472589
    24  H    0.170360
    25  H    0.196475
    26  H    0.164471
    27  H    0.157564
    28  H    0.207739
 Sum of Mulliken charges =   0.00000

 Dipole moment (field-independent basis, Debye):
    X=             -9.1528    Y=              4.2636    Z=              0.0311  Tot=             10.0971
 Quadrupole moment (field-independent basis, Debye-Ang):
   XX=           -118.9382   YY=           -102.1659   ZZ=           -109.3472
   XY=              9.2338   XZ=              0.4263   YZ=              0.5322

  Exact polarizability: 215.265  -0.902 173.327   0.227   2.734 116.824
 Approx polarizability: 313.355 -16.896 279.197   0.835   8.367 176.891

                      1                      2                      3
                      A                      A                      A
 Frequencies --     33.0256                47.7956                52.2111
 Red. masses --      3.7740                 9.4224                 8.0003
 Frc consts  --      0.0024                 0.0127                 0.0128
 IR Inten    --      0.4257                 2.2398                 1.1097

                      4                      5                      6
                      A                      A                      A
 Frequencies --     61.2084                74.6944                92.2759
 Red. masses --      2.8169                 2.6325                 3.8770
 Frc consts  --      0.0062                 0.0087                 0.0195
 IR Inten    --      0.0414                 0.0743                 0.0294

                      7                      8                      9
                      A                      A                      A
 Frequencies --    104.6150               123.7025               150.5835
 Red. masses --      4.4000                 4.8107                 1.9487
 Frc consts  --      0.0284                 0.0434                 0.0260
 IR Inten    --      0.0186                 0.0377                 0.0510

                     10                     11                     12
                      A                      A                      A
 Frequencies --    171.2083               209.3832               216.4609
 Red. masses --      1.8242                 2.8041                 3.0233
 Frc consts  --      0.0315                 0.0724                 0.0835
 IR Inten    --      0.0597                 0.6249                 1.6106

                     13                     14                     15
                      A                      A                      A
 Frequencies --    254.7083               260.2570               288.3599
 Red. masses --      1.3789                 1.6981                 3.7429
 Frc consts  --      0.0527                 0.0678                 0.1834
 IR Inten    --      0.0237                 0.6365                 1.1457

                     16                     17                     18
                      A                      A                      A
 Frequencies --    334.4065               357.8791               388.0980
 Red. masses --     29.4016                 4.2419                 4.0549
 Frc consts  --      1.9372                 0.3201                 0.3598
 IR Inten    --     56.1914                 1.7736                 3.2056

                     19                     20                     21
                      A                      A                      A
 Frequencies --    410.4565               476.3059               492.3122
 Red. masses --      2.9199                 6.0970                 3.6534
 Frc consts  --      0.2898                 0.8150                 0.5217
 IR Inten    --      0.0077                30.8768                 8.9888

                     22                     23                     24
                      A                      A                      A
 Frequencies --    630.6538               656.6331               693.5036
 Red. masses --      6.2015                 3.4302                 4.4969
 Frc consts  --      1.4532                 0.8714                 1.2743
 IR Inten    --      1.0510                11.2246                17.7683

                     25                     26                     27
                      A                      A                      A
 Frequencies --    709.6763               714.8084               763.2452
 Red. masses --      2.2610                 3.8631                 1.4636
 Frc consts  --      0.6709                 1.1630                 0.5023
 IR Inten    --     27.1390                12.1626                20.0870

                     28                     29                     30
                      A                      A                      A
 Frequencies --    767.0479               782.6900               865.1322
 Red. masses --      1.3772                 1.3585                 1.2455
 Frc consts  --      0.4774                 0.4903                 0.5492
 IR Inten    --     23.8530                39.5446                 0.0502

                     31                     32                     33
                      A                      A                      A
 Frequencies --    941.3649               981.1349               995.2092
 Red. masses --      1.3289                 1.3609                 1.7369
 Frc consts  --      0.6938                 0.7718                 1.0136
 IR Inten    --      0.3043                 0.0138                 0.3161

                     34                     35                     36
                      A                      A                      A
 Frequencies --    995.6878              1010.4589              1014.8107
 Red. masses --      1.7739                 1.2837                 4.9849
 Frc consts  --      1.0362                 0.7723                 3.0247
 IR Inten    --      0.2267                 0.0963                 5.9110

                     37                     38                     39
                      A                      A                      A
 Frequencies --   1021.7190              1038.0004              1054.6186
 Red. masses --      1.4104                 1.3467                 2.8997
 Frc consts  --      0.8675                 0.8549                 1.9002
 IR Inten    --      2.4083                20.1615                 0.3522

                     40                     41                     42
                      A                      A                      A
 Frequencies --   1062.5083              1083.7188              1116.1552
 Red. masses --      1.8854                 1.7605                 1.6596
 Frc consts  --      1.2540                 1.2182                 1.2182
 IR Inten    --     21.3868                15.3089                 1.1317

                     43                     44                     45
                      A                      A                      A
 Frequencies --   1125.1670              1197.5570              1223.3595
 Red. masses --      2.8210                 1.1020                 1.1468
 Frc consts  --      2.1042                 0.9312                 1.0112
 IR Inten    --     33.1942                 0.0688                 4.7987

                     46                     47                     48
                      A                      A                      A
 Frequencies --   1279.6368              1285.2921              1306.2357
 Red. masses --      1.2300                 1.2164                 1.4000
 Frc consts  --      1.1867                 1.1839                 1.4074
 IR Inten    --      0.9358                 2.6684                 4.4357

                     49                     50                     51
                      A                      A                      A
 Frequencies --   1308.6608              1333.4791              1370.4342
 Red. masses --      1.3980                 3.3640                 1.6487
 Frc consts  --      1.4106                 3.5244                 1.8243
 IR Inten    --      7.1440                 4.9118                 3.0848

                     52                     53                     54
                      A                      A                      A
 Frequencies --   1443.9666              1444.7937              1483.2969
 Red. masses --      1.2055                 1.2021                 2.0427
 Frc consts  --      1.4810                 1.4784                 2.6479
 IR Inten    --      2.5856                 2.8466                16.0174

                     55                     56                     57
                      A                      A                      A
 Frequencies --   1487.4850              1489.5540              1528.3665
 Red. masses --      1.0961                 1.0947                 1.0399
 Frc consts  --      1.4289                 1.4311                 1.4312
 IR Inten    --      5.6195                 6.5435                 7.4396

                     58                     59                     60
                      A                      A                      A
 Frequencies --   1529.7539              1530.1457              1532.0893
 Red. masses --      1.0405                 1.0503                 1.0469
 Frc consts  --      1.4347                 1.4489                 1.4478
 IR Inten    --      8.4019                 3.6459                 4.3903

                     61                     62                     63
                      A                      A                      A
 Frequencies --   1534.1705              1632.6897              1648.4447
 Red. masses --      1.9703                 5.0645                 5.2728
 Frc consts  --      2.7323                 7.9542                 8.4418
 IR Inten    --      4.1733                 1.0323                 0.4226

                     64                     65                     66
                      A                      A                      A
 Frequencies --   3051.5767              3055.0974              3058.3164
 Red. masses --      1.0601                 1.0606                 1.0359
 Frc consts  --      5.8162                 5.8324                 5.7085
 IR Inten    --      7.0733                12.3864                23.5418

                     67                     68                     69
                      A                      A                      A
 Frequencies --   3059.7741              3099.6651              3102.8702
 Red. masses --      1.0349                 1.1024                 1.1026
 Frc consts  --      5.7088                 6.2404                 6.2545
 IR Inten    --     18.6697                 2.7863                 2.7406

                     70                     71                     72
                      A                      A                      A
 Frequencies --   3124.9765              3127.4597              3133.9799
 Red. masses --      1.1022                 1.1026                 1.1036
 Frc consts  --      6.3419                 6.3543                 6.3862
 IR Inten    --     19.2831                21.3088                22.8122

                     73                     74                     75
                      A                      A                      A
 Frequencies --   3136.7457              3184.9479              3194.2809
 Red. masses --      1.1036                 1.0862                 1.0872
 Frc consts  --      6.3979                 6.4919                 6.5360
 IR Inten    --     17.5775                 3.9659                 1.1135

                     76                     77                     78
                      A                      A                      A
 Frequencies --   3200.9418              3209.4477              3218.5183
 Red. masses --      1.0907                 1.0942                 1.0980
 Frc consts  --      6.5840                 6.6404                 6.7013
 IR Inten    --      6.2697                19.4736                19.2924

 - Thermochemistry -
 -------------------
 Temperature   298.150 Kelvin.  Pressure   1.00000 Atm.
 Atom     1 has atomic number 79 and mass 196.96660

 Molecular mass:   398.02659 amu.
 Principal axes and moments of inertia in atomic units:
                           1         2         3
     Eigenvalues --  2788.146936929.463408076.74664
           X            0.99976   0.02163  -0.00277
           Y           -0.02166   0.99973  -0.00818
           Z            0.00259   0.00824   0.99996
 This molecule is an asymmetric top.
 Rotational symmetry number  1.
 Warning -- assumption of classical behavior for rotation
           may cause significant error
 Rotational temperatures (Kelvin)      0.03107     0.01250     0.01072
 Rotational constants (GHZ):           0.64729     0.26044     0.22345
 Zero-point vibrational energy     599161.0 (Joules/Mol)
                                  143.20292 (Kcal/Mol)
 Warning -- explicit consideration of  21 degrees of freedom as
           vibrations may cause significant error
 Vibrational temperatures:     47.52    68.77    75.12    88.07   107.47
          (Kelvin)            132.76   150.52   177.98   216.66   246.33
                              301.26   311.44   366.47   374.45   414.88
                              481.14   514.91   558.39   590.55   685.30
                              708.33   907.37   944.75   997.80  1021.06
                             1028.45  1098.14  1103.61  1126.11  1244.73
                             1354.41  1411.63  1431.88  1432.57  1453.82
                             1460.08  1470.02  1493.45  1517.36  1528.71
                             1559.23  1605.90  1618.86  1723.02  1760.14
                             1841.11  1849.25  1879.38  1882.87  1918.58
                             1971.75  2077.54  2078.73  2134.13  2140.16
                             2143.13  2198.98  2200.97  2201.54  2204.33
                             2207.33  2349.07  2371.74  4390.53  4395.60
                             4400.23  4402.33  4459.72  4464.33  4496.14
                             4499.71  4509.09  4513.07  4582.42  4595.85
                             4605.44  4617.67  4630.72

 Zero-point correction=                           0.228208 (Hartree/Particle)
 Thermal correction to Energy=                    0.244394
 Thermal correction to Enthalpy=                  0.245338
 Thermal correction to Gibbs Free Energy=         0.181376
 Sum of electronic and zero-point Energies=          -1326.989771
 Sum of electronic and thermal Energies=             -1326.973586
 Sum of electronic and thermal Enthalpies=           -1326.972642
 Sum of electronic and thermal Free Energies=        -1327.036604

                     E (Thermal)             CV                S
                      KCal/Mol        Cal/Mol-Kelvin    Cal/Mol-Kelvin
 Total                  153.359             56.526            134.620
 Electronic               0.000              0.000              0.000
 Translational            0.889              2.981             43.836
 Rotational               0.889              2.981             33.411
 Vibrational            151.582             50.564             57.373
 Vibration     1          0.594              1.983              5.639
 Vibration     2          0.595              1.978              4.907
 Vibration     3          0.596              1.977              4.732
 Vibration     4          0.597              1.973              4.418
 Vibration     5          0.599              1.966              4.026
 Vibration     6          0.602              1.955              3.611
 Vibration     7          0.605              1.946              3.366
 Vibration     8          0.610              1.929              3.042
 Vibration     9          0.618              1.902              2.665
 Vibration    10          0.626              1.878              2.422
 Vibration    11          0.642              1.826              2.049
 Vibration    12          0.645              1.816              1.989
 Vibration    13          0.665              1.755              1.698
 Vibration    14          0.668              1.745              1.660
 Vibration    15          0.685              1.695              1.484
 Vibration    16          0.716              1.607              1.239
 Vibration    17          0.733              1.559              1.131
 Vibration    18          0.756              1.496              1.007
 Vibration    19          0.775              1.448              0.925
 Vibration    20          0.833              1.303              0.720
 Vibration    21          0.848              1.267              0.678

 Normal termination of Gaussian 09 at Wed May 17 09:35:23 2023.
