 Gaussian 09, Revision D.01,
 Gaussian 09:  EM64L-G09RevD.01 24-Apr-2013

 ----------------------------------------
 # opt freq=noraman b3lyp/gen pseudo=read
 ----------------------------------------

 --
 af
 --
 Symbolic Z-matrix:
 Charge =  0 Multiplicity = 1

 SCF Done:  E(RB3LYP) =  -1152.37615043     A.U. after   13 cycles
 SCF Done:  E(RB3LYP) =  -1152.37557244     A.U. after   11 cycles
 SCF Done:  E(RB3LYP) =  -1152.37661316     A.U. after    9 cycles
 SCF Done:  E(RB3LYP) =  -1152.37706588     A.U. after   11 cycles
 SCF Done:  E(RB3LYP) =  -1152.37683586     A.U. after   10 cycles
 SCF Done:  E(RB3LYP) =  -1152.37719605     A.U. after    8 cycles
 SCF Done:  E(RB3LYP) =  -1152.37731004     A.U. after   10 cycles
 SCF Done:  E(RB3LYP) =  -1152.37737667     A.U. after    9 cycles
 SCF Done:  E(RB3LYP) =  -1152.37740796     A.U. after    9 cycles
 SCF Done:  E(RB3LYP) =  -1152.37740904     A.U. after    8 cycles
 SCF Done:  E(RB3LYP) =  -1152.37740935     A.U. after    7 cycles
 SCF Done:  E(RB3LYP) =  -1152.37740939     A.U. after    7 cycles
 SCF Done:  E(RB3LYP) =  -1152.37740938     A.U. after    7 cycles
 Optimization completed.
    -- Stationary point found.
 Normal termination of Gaussian 09 at Thu May 18 08:05:47 2023.

 ------------------------------------------------------------------
 #N Geom=AllCheck Guess=TCheck SCRF=Check GenChk RB3LYP/ChkBas Freq
 ------------------------------------------------------------------

 Structure from the checkpoint file:  "/home/scr/guest2/Gau-3255.chk"
 --
 af
 --
 Charge =  0 Multiplicity = 1

                         Standard orientation:
 ---------------------------------------------------------------------
 Center     Atomic      Atomic             Coordinates (Angstroms)
 Number     Number       Type             X           Y           Z
 ---------------------------------------------------------------------
      1         79           0       -0.855148    0.001763   -0.083101
      2         17           0       -3.104792    0.012110    0.297769
      3          6           0        2.058352   -1.546177    0.309022
      4          6           0        3.560904   -1.764025    0.156663
      5          1           0        1.491643   -2.340685   -0.185181
      6          1           0        1.747263   -1.520007    1.357052
      7          1           0        3.823820   -2.744767    0.569484
      8          1           0        3.864239   -1.745062   -0.894810
      9          1           0        4.141948   -1.012526    0.699843
     10          6           0        2.150151    1.339714    0.569274
     11          6           0        3.442163    1.927166    0.005474
     12          1           0        2.279637    0.921889    1.572403
     13          1           0        1.368094    2.099947    0.627551
     14          1           0        3.787579    2.735347    0.660770
     15          1           0        4.240776    1.182933   -0.063120
     16          1           0        3.281414    2.346033   -0.992720
     17         16           0        1.440147   -0.000523   -0.505687
 ---------------------------------------------------------------------

 SCF Done:  E(RB3LYP) =  -1152.37740938     A.U. after    1 cycles

 The electronic state is 1-A.
 Alpha  occ. eigenvalues -- -101.45892 -88.93201 -10.25077 -10.25014 -10.21196
 Alpha  occ. eigenvalues --  -10.20894  -9.39003  -8.00579  -7.15081  -7.14471
 Alpha  occ. eigenvalues --   -7.14461  -5.96882  -5.96640  -5.96163  -4.16789
 Alpha  occ. eigenvalues --   -2.31609  -2.29381  -2.29246  -0.86333  -0.80221
 Alpha  occ. eigenvalues --   -0.74753  -0.73883  -0.66333  -0.62377  -0.51288
 Alpha  occ. eigenvalues --   -0.49553  -0.48097  -0.46121  -0.42823  -0.42745
 Alpha  occ. eigenvalues --   -0.41480  -0.40120  -0.39763  -0.37454  -0.36276
 Alpha  occ. eigenvalues --   -0.33718  -0.32563  -0.30342  -0.30331  -0.29587
 Alpha  occ. eigenvalues --   -0.27006  -0.24574  -0.24275
 Alpha virt. eigenvalues --   -0.02680  -0.02247  -0.00809   0.02619   0.03248
 Alpha virt. eigenvalues --    0.03851   0.07759   0.07820   0.10257   0.11309
 Alpha virt. eigenvalues --    0.12485   0.12900   0.13141   0.13368   0.14680

 Mulliken charges:
               1
     1  Au   0.049204
     2  Cl  -0.382068
     3  C   -0.415122
     4  C   -0.455860
     5  H    0.218691
     6  H    0.208937
     7  H    0.175644
     8  H    0.177598
     9  H    0.164005
    10  C   -0.423611
    11  C   -0.449686
    12  H    0.195847
    13  H    0.230566
    14  H    0.171143
    15  H    0.165704
    16  H    0.180171
    17  S    0.188834
 Sum of Mulliken charges =   0.00000

 Dipole moment (field-independent basis, Debye):
    X=              9.5300    Y=             -0.2196    Z=              0.6623  Tot=              9.5555
 Quadrupole moment (field-independent basis, Debye-Ang):
   XX=            -81.1344   YY=            -69.8774   ZZ=            -76.9809
   XY=             -0.4000   XZ=              4.1181   YZ=              0.3788

  Exact polarizability: 147.523  -0.044  96.523  -0.941   0.469  77.706
 Approx polarizability: 198.441  -0.164 145.429  -3.302   1.258 128.075

                      1                      2                      3
                      A                      A                      A
 Frequencies --     47.5310                59.0172                64.5891
 Red. masses --      3.2215                 4.5310                 2.9456
 Frc consts  --      0.0043                 0.0093                 0.0072
 IR Inten    --      1.8143                 0.7939                 0.4652

                      4                      5                      6
                      A                      A                      A
 Frequencies --     89.4402               136.8582               149.8118
 Red. masses --      2.7732                 5.2759                 5.3360
 Frc consts  --      0.0131                 0.0582                 0.0706
 IR Inten    --      0.4764                 0.2609                 0.1166

                      7                      8                      9
                      A                      A                      A
 Frequencies --    200.3352               215.4599               245.1761
 Red. masses --      1.4894                 3.5753                 1.2881
 Frc consts  --      0.0352                 0.0978                 0.0456
 IR Inten    --      0.0613                 0.1970                 0.1349

                     10                     11                     12
                      A                      A                      A
 Frequencies --    289.3698               319.3052               349.5775
 Red. masses --      1.7715                 2.3321                32.7162
 Frc consts  --      0.0874                 0.1401                 2.3556
 IR Inten    --      0.2108                 0.2802                38.8490

                     13                     14                     15
                      A                      A                      A
 Frequencies --    422.7183               603.5464               662.3051
 Red. masses --      5.3456                 3.9782                 4.8620
 Frc consts  --      0.5628                 0.8538                 1.2566
 IR Inten    --      0.3888                 4.1761                 1.1545

                     16                     17                     18
                      A                      A                      A
 Frequencies --    757.4687               792.7691               987.5390
 Red. masses --      1.1499                 1.1827                 1.9329
 Frc consts  --      0.3887                 0.4380                 1.1106
 IR Inten    --      3.1088                 5.7162                 7.7473

                     19                     20                     21
                      A                      A                      A
 Frequencies --    992.2873              1042.8218              1079.5156
 Red. masses --      1.9548                 1.2108                 1.8914
 Frc consts  --      1.1340                 0.7758                 1.2987
 IR Inten    --      9.9641                 1.6921                 4.3422

                     22                     23                     24
                      A                      A                      A
 Frequencies --   1085.5508              1109.9270              1281.3812
 Red. masses --      1.8938                 1.4006                 1.2292
 Frc consts  --      1.3149                 1.0166                 1.1891
 IR Inten    --      5.3727                 4.6260                 5.6633

                     25                     26                     27
                      A                      A                      A
 Frequencies --   1295.9644              1309.2390              1335.4099
 Red. masses --      1.1692                 1.2528                 1.2695
 Frc consts  --      1.1570                 1.2652                 1.3339
 IR Inten    --      2.2647                20.6942                13.5635

                     28                     29                     30
                      A                      A                      A
 Frequencies --   1440.3466              1446.7066              1493.1192
 Red. masses --      1.2199                 1.2139                 1.0891
 Frc consts  --      1.4911                 1.4969                 1.4306
 IR Inten    --      1.0522                 6.9717                 0.9428

                     31                     32                     33
                      A                      A                      A
 Frequencies --   1501.0707              1518.5352              1521.6646
 Red. masses --      1.0888                 1.0392                 1.0440
 Frc consts  --      1.4454                 1.4119                 1.4243
 IR Inten    --      9.3233                 4.4954                13.4402

                     34                     35                     36
                      A                      A                      A
 Frequencies --   1529.7176              1532.9692              3061.3714
 Red. masses --      1.0462                 1.0443                 1.0358
 Frc consts  --      1.4425                 1.4459                 5.7196
 IR Inten    --      1.5241                 9.1632                 6.5204

                     37                     38                     39
                      A                      A                      A
 Frequencies --   3063.3938              3089.4152              3093.0967
 Red. masses --      1.0369                 1.0606                 1.0622
 Frc consts  --      5.7334                 5.9643                 5.9874
 IR Inten    --     26.5478                 5.1356                 1.1033

                     40                     41                     42
                      A                      A                      A
 Frequencies --   3127.1004              3130.7009              3131.8514
 Red. masses --      1.1010                 1.0998                 1.1049
 Frc consts  --      6.3435                 6.3509                 6.3854
 IR Inten    --     21.2624                13.9725                 1.0233

                     43                     44                     45
                      A                      A                      A
 Frequencies --   3136.9902              3152.9145              3159.1488
 Red. masses --      1.1038                 1.1063                 1.1051
 Frc consts  --      6.3996                 6.4797                 6.4980
 IR Inten    --      3.8400                10.1932                12.2529

 - Thermochemistry -
 -------------------
 Temperature   298.150 Kelvin.  Pressure   1.00000 Atm.
 Atom     1 has atomic number 79 and mass 196.96660

 Molecular mass:   321.98577 amu.
 Principal axes and moments of inertia in atomic units:
                           1         2         3
     Eigenvalues --   703.968733796.567254317.36220
           X            0.99998   0.00062   0.00639
           Y           -0.00061   1.00000  -0.00113
           Z           -0.00640   0.00112   0.99998
 This molecule is an asymmetric top.
 Rotational symmetry number  1.
 Warning -- assumption of classical behavior for rotation
           may cause significant error
 Rotational temperatures (Kelvin)      0.12304     0.02281     0.02006
 Rotational constants (GHZ):           2.56367     0.47536     0.41802
 Zero-point vibrational energy     359208.8 (Joules/Mol)
                                   85.85297 (Kcal/Mol)
 Warning -- explicit consideration of  14 degrees of freedom as
           vibrations may cause significant error
 Vibrational temperatures:     68.39    84.91    92.93   128.68   196.91
          (Kelvin)            215.55   288.24   310.00   352.75   416.34
                              459.41   502.96   608.20   868.37   952.91
                             1089.83  1140.62  1420.85  1427.68  1500.39
                             1553.18  1561.86  1596.94  1843.62  1864.60
                             1883.70  1921.35  2072.33  2081.49  2148.26
                             2159.70  2184.83  2189.33  2200.92  2205.60
                             4404.63  4407.53  4444.97  4450.27  4499.19
                             4504.37  4506.03  4513.42  4536.34  4545.30

 Zero-point correction=                           0.136815 (Hartree/Particle)
 Thermal correction to Energy=                    0.147972
 Thermal correction to Enthalpy=                  0.148916
 Thermal correction to Gibbs Free Energy=         0.096841
 Sum of electronic and zero-point Energies=          -1152.240594
 Sum of electronic and thermal Energies=             -1152.229437
 Sum of electronic and thermal Enthalpies=           -1152.228493
 Sum of electronic and thermal Free Energies=        -1152.280568

                     E (Thermal)             CV                S
                      KCal/Mol        Cal/Mol-Kelvin    Cal/Mol-Kelvin
 Total                   92.854             35.892            109.601
 Electronic               0.000              0.000              0.000
 Translational            0.889              2.981             43.204
 Rotational               0.889              2.981             30.824
 Vibrational             91.077             29.931             35.574
 Vibration     1          0.595              1.979              4.918
 Vibration     2          0.596              1.974              4.490
 Vibration     3          0.597              1.971              4.312
 Vibration     4          0.602              1.957              3.672
 Vibration     5          0.614              1.917              2.847
 Vibration     6          0.618              1.903              2.675
 Vibration     7          0.638              1.839              2.130
 Vibration     8          0.645              1.817              1.997
 Vibration     9          0.660              1.771              1.765
 Vibration    10          0.686              1.693              1.478
 Vibration    11          0.705              1.637              1.314
 Vibration    12          0.727              1.576              1.168
 Vibration    13          0.785              1.421              0.883
 Vibration    14          0.962              1.024              0.444

 Optimization completed.
    -- Stationary point found.
 Normal termination of Gaussian 09 at Thu May 18 08:06:45 2023.
