 Gaussian 09, Revision D.01,
 Gaussian 09:  EM64L-G09RevD.01 24-Apr-2013

 ----------------------------------------
 # opt freq=noraman b3lyp/gen pseudo=read
 ----------------------------------------

 --
 af
 --
 Symbolic Z-matrix:
 Charge =  0 Multiplicity = 1

 SCF Done:  E(RB3LYP) =  -1190.48917827     A.U. after   13 cycles
 SCF Done:  E(RB3LYP) =  -1190.48691494     A.U. after   11 cycles
 SCF Done:  E(RB3LYP) =  -1190.48946448     A.U. after    9 cycles
 SCF Done:  E(RB3LYP) =  -1190.49032484     A.U. after   10 cycles
 SCF Done:  E(RB3LYP) =  -1190.48979427     A.U. after   11 cycles
 SCF Done:  E(RB3LYP) =  -1190.49040448     A.U. after    8 cycles
 SCF Done:  E(RB3LYP) =  -1190.49056646     A.U. after   10 cycles
 SCF Done:  E(RB3LYP) =  -1190.49063114     A.U. after    9 cycles
 SCF Done:  E(RB3LYP) =  -1190.49063293     A.U. after    8 cycles
 SCF Done:  E(RB3LYP) =  -1190.49063345     A.U. after    7 cycles
 Optimization completed.
    -- Stationary point found.
 Normal termination of Gaussian 09 at Thu May 18 08:08:51 2023.

 ------------------------------------------------------------------
 #N Geom=AllCheck Guess=TCheck SCRF=Check GenChk RB3LYP/ChkBas Freq
 ------------------------------------------------------------------

 Structure from the checkpoint file:  "/home/scr/guest2/Gau-4994.chk"
 --
 af
 --
 Charge =  0 Multiplicity = 1

                         Standard orientation:
 ---------------------------------------------------------------------
 Center     Atomic      Atomic             Coordinates (Angstroms)
 Number     Number       Type             X           Y           Z
 ---------------------------------------------------------------------
      1          6           0        2.384630    0.976631    1.283958
      2          6           0        2.166576   -0.532402    1.400553
      3          6           0        2.166498   -0.531633   -1.400919
      4          6           0        2.384560    0.977346   -1.283506
      5          6           0        3.123789    1.386250    0.000316
      6          1           0        3.117915   -1.077183    1.415578
      7          1           0        1.607305   -0.798257    2.301419
      8          1           0        1.413398    1.484355    1.337416
      9          1           0        2.962197    1.297944    2.160759
     10          1           0        3.117826   -1.076420   -1.416282
     11          1           0        1.607191   -0.796975   -2.301915
     12          1           0        2.962073    1.299173   -2.160152
     13          1           0        1.413324    1.485108   -1.336610
     14          1           0        4.129224    0.939753    0.000161
     15          1           0        3.267448    2.472728    0.000607
     16         16           0        1.198590   -1.253522   -0.000351
     17         79           0       -0.868764   -0.168751    0.000006
     18         17           0       -2.911724    0.852960    0.000101
 ---------------------------------------------------------------------

 SCF Done:  E(RB3LYP) =  -1190.49063345     A.U. after    1 cycles

 The electronic state is 1-A.
 Alpha  occ. eigenvalues -- -101.45908 -88.93176 -10.24737 -10.24735 -10.21235
 Alpha  occ. eigenvalues --  -10.21232 -10.20775  -9.39016  -8.00548  -7.15089
 Alpha  occ. eigenvalues --   -7.14487  -7.14475  -5.96833  -5.96626  -5.96129
 Alpha  occ. eigenvalues --   -4.16837  -2.31635  -2.29438  -2.29309  -0.87831
 Alpha  occ. eigenvalues --   -0.79515  -0.79334  -0.74388  -0.66719  -0.65732
 Alpha  occ. eigenvalues --   -0.59402  -0.51390  -0.49049  -0.48278  -0.46759
 Alpha  occ. eigenvalues --   -0.43440  -0.43115  -0.41681  -0.39234  -0.39187
 Alpha  occ. eigenvalues --   -0.36313  -0.35356  -0.35102  -0.33491  -0.32645
 Alpha  occ. eigenvalues --   -0.30406  -0.30398  -0.29323  -0.27058  -0.24618
 Alpha  occ. eigenvalues --   -0.24314
 Alpha virt. eigenvalues --   -0.02821  -0.01687  -0.00337   0.02436   0.03495
 Alpha virt. eigenvalues --    0.04723   0.08073   0.08438   0.09237   0.10888
 Alpha virt. eigenvalues --    0.11743   0.12220   0.13827   0.15114   0.15192

 Mulliken charges:
               1
     1  C   -0.276767
     2  C   -0.424521
     3  C   -0.424519
     4  C   -0.276769
     5  C   -0.262870
     6  H    0.186965
     7  H    0.214469
     8  H    0.204106
     9  H    0.160072
    10  H    0.186967
    11  H    0.214470
    12  H    0.160073
    13  H    0.204107
    14  H    0.135752
    15  H    0.158642
    16  S    0.188965
    17  Au   0.031515
    18  Cl  -0.380657
 Sum of Mulliken charges =   0.00000

 Dipole moment (field-independent basis, Debye):
    X=              9.1533    Y=             -1.1501    Z=             -0.0002  Tot=              9.2253
 Quadrupole moment (field-independent basis, Debye-Ang):
   XX=            -85.1995   YY=            -82.5797   ZZ=            -76.2188
   XY=              4.1363   XZ=              0.0005   YZ=             -0.0017

  Exact polarizability: 143.256  -7.555  95.076  -0.001  -0.002  96.655
 Approx polarizability: 203.595 -19.814 152.729  -0.003  -0.002 153.568

                      1                      2                      3
                      A                      A                      A
 Frequencies --     57.4944                61.9704               102.2263
 Red. masses --      6.5133                 6.7121                 8.4294
 Frc consts  --      0.0127                 0.0152                 0.0519
 IR Inten    --      1.4861                 0.7614                 0.0237

                      4                      5                      6
                      A                      A                      A
 Frequencies --    143.0489               173.4696               260.1037
 Red. masses --      4.4587                 2.6353                 1.8948
 Frc consts  --      0.0538                 0.0467                 0.0755
 IR Inten    --      0.0707                 0.3434                 0.0592

                      7                      8                      9
                      A                      A                      A
 Frequencies --    288.2025               347.6703               352.3863
 Red. masses --      5.5278                 3.6924                 5.6523
 Frc consts  --      0.2705                 0.2630                 0.4135
 IR Inten    --      0.7612                20.9595                16.4999

                     10                     11                     12
                      A                      A                      A
 Frequencies --    376.2918               407.4397               515.8855
 Red. masses --      3.2671                 3.3743                 1.6372
 Frc consts  --      0.2726                 0.3300                 0.2567
 IR Inten    --      0.4420                 0.7794                 1.4355

                     13                     14                     15
                      A                      A                      A
 Frequencies --    623.5342               653.9666               807.8555
 Red. masses --      4.4098                 4.1050                 1.5971
 Frc consts  --      1.0102                 1.0344                 0.6141
 IR Inten    --      2.8062                 1.0710                 0.2591

                     16                     17                     18
                      A                      A                      A
 Frequencies --    819.8140               849.5149               915.5355
 Red. masses --      2.8285                 1.3984                 1.6190
 Frc consts  --      1.1200                 0.5946                 0.7995
 IR Inten    --      1.3540                 5.8451                 6.3731

                     19                     20                     21
                      A                      A                      A
 Frequencies --    952.7675               986.5186              1030.8730
 Red. masses --      1.8625                 2.2878                 1.9637
 Frc consts  --      0.9961                 1.3118                 1.2295
 IR Inten    --      0.1594                16.3853                 0.4007

                     22                     23                     24
                      A                      A                      A
 Frequencies --   1094.1630              1101.2929              1127.6004
 Red. masses --      1.9677                 1.6230                 1.0627
 Frc consts  --      1.3879                 1.1598                 0.7961
 IR Inten    --      0.0290                 6.2498                 0.0019

                     25                     26                     27
                      A                      A                      A
 Frequencies --   1183.7868              1255.5789              1284.8554
 Red. masses --      1.1884                 1.2974                 1.2650
 Frc consts  --      0.9812                 1.2051                 1.2304
 IR Inten    --      0.8574                10.2504                 2.8807

                     28                     29                     30
                      A                      A                      A
 Frequencies --   1304.5815              1323.3910              1358.7779
 Red. masses --      1.2238                 1.2458                 1.2054
 Frc consts  --      1.2271                 1.2855                 1.3112
 IR Inten    --      2.1955                12.8040                16.0362

                     31                     32                     33
                      A                      A                      A
 Frequencies --   1391.9884              1407.3450              1408.7787
 Red. masses --      1.3560                 1.4822                 1.4282
 Frc consts  --      1.5480                 1.7296                 1.6701
 IR Inten    --      0.0325                 1.6844                 0.0000

                     34                     35                     36
                      A                      A                      A
 Frequencies --   1488.5002              1493.5682              1503.3080
 Red. masses --      1.0922                 1.0885                 1.0903
 Frc consts  --      1.4258                 1.4307                 1.4518
 IR Inten    --      3.5363                10.0648                 7.6171

                     37                     38                     39
                      A                      A                      A
 Frequencies --   1512.7549              1525.1841              3029.5694
 Red. masses --      1.0812                 1.0952                 1.0695
 Frc consts  --      1.4577                 1.5011                 5.7833
 IR Inten    --     12.0866                 3.8784                24.0108

                     40                     41                     42
                      A                      A                      A
 Frequencies --   3047.6781              3048.0819              3070.0895
 Red. masses --      1.0606                 1.0623                 1.0686
 Frc consts  --      5.8039                 5.8150                 5.9341
 IR Inten    --     27.2031                 5.0235                 1.5853

                     43                     44                     45
                      A                      A                      A
 Frequencies --   3070.4679              3089.3929              3091.6052
 Red. masses --      1.0673                 1.0931                 1.0980
 Frc consts  --      5.9286                 6.1472                 6.1835
 IR Inten    --      9.0944                35.2311                13.7719

                     46                     47                     48
                      A                      A                      A
 Frequencies --   3098.3554              3139.9496              3140.5851
 Red. masses --      1.0995                 1.1041                 1.1024
 Frc consts  --      6.2190                 6.4136                 6.4062
 IR Inten    --     38.2500                 4.8605                 1.1223

 - Thermochemistry -
 -------------------
 Temperature   298.150 Kelvin.  Pressure   1.00000 Atm.
 Atom     1 has atomic number  6 and mass  12.00000

 Molecular mass:   333.98577 amu.
 Principal axes and moments of inertia in atomic units:
                           1         2         3
     Eigenvalues --   951.170413695.297723829.61264
           X            0.99985   0.01710   0.00000
           Y           -0.01710   0.99985  -0.00008
           Z            0.00000   0.00008   1.00000
 This molecule is an asymmetric top.
 Rotational symmetry number  1.
 Warning -- assumption of classical behavior for rotation
           may cause significant error
 Rotational temperatures (Kelvin)      0.09106     0.02344     0.02262
 Rotational constants (GHZ):           1.89739     0.48839     0.47126
 Zero-point vibrational energy     384705.9 (Joules/Mol)
                                   91.94691 (Kcal/Mol)
 Warning -- explicit consideration of  12 degrees of freedom as
           vibrations may cause significant error
 Vibrational temperatures:     82.72    89.16   147.08   205.82   249.58
          (Kelvin)            374.23   414.66   500.22   507.00   541.40
                              586.21   742.24   897.13   940.91  1162.32
                             1179.53  1222.26  1317.25  1370.82  1419.38
                             1483.19  1574.25  1584.51  1622.36  1703.20
                             1806.50  1848.62  1877.00  1904.06  1954.98
                             2002.76  2024.85  2026.92  2141.62  2148.91
                             2162.92  2176.51  2194.40  4358.87  4384.92
                             4385.50  4417.17  4417.71  4444.94  4448.12
                             4457.84  4517.68  4518.60

 Zero-point correction=                           0.146527 (Hartree/Particle)
 Thermal correction to Energy=                    0.156309
 Thermal correction to Enthalpy=                  0.157253
 Thermal correction to Gibbs Free Energy=         0.108732
 Sum of electronic and zero-point Energies=          -1190.344107
 Sum of electronic and thermal Energies=             -1190.334324
 Sum of electronic and thermal Enthalpies=           -1190.333380
 Sum of electronic and thermal Free Energies=        -1190.381901

                     E (Thermal)             CV                S
                      KCal/Mol        Cal/Mol-Kelvin    Cal/Mol-Kelvin
 Total                   98.085             34.255            102.120
 Electronic               0.000              0.000              0.000
 Translational            0.889              2.981             43.313
 Rotational               0.889              2.981             30.977
 Vibrational             96.308             28.293             27.831
 Vibration     1          0.596              1.975              4.541
 Vibration     2          0.597              1.972              4.393
 Vibration     3          0.604              1.947              3.411
 Vibration     4          0.616              1.910              2.763
 Vibration     5          0.627              1.875              2.398
 Vibration     6          0.668              1.746              1.661
 Vibration     7          0.685              1.696              1.484
 Vibration     8          0.725              1.580              1.177
 Vibration     9          0.729              1.570              1.156
 Vibration    10          0.747              1.521              1.054
 Vibration    11          0.772              1.454              0.936
 Vibration    12          0.871              1.215              0.620

 Optimization completed.
    -- Stationary point found.
 Normal termination of Gaussian 09 at Thu May 18 08:10:12 2023.
