 Gaussian 09, Revision D.01,
 Gaussian 09:  EM64L-G09RevD.01 24-Apr-2013

 ----------------------------------------
 # opt freq=noraman b3lyp/gen pseudo=read
 ----------------------------------------

 --
 af
 --
 Symbolic Z-matrix:
 Charge =  0 Multiplicity = 1

 SCF Done:  E(RB3LYP) =  -1050.56136423     A.U. after   12 cycles
 SCF Done:  E(RB3LYP) =  -1050.56262044     A.U. after   10 cycles
 SCF Done:  E(RB3LYP) =  -1050.55944753     A.U. after   11 cycles
 SCF Done:  E(RB3LYP) =  -1050.56258353     A.U. after    8 cycles
 SCF Done:  E(RB3LYP) =  -1050.56257352     A.U. after    5 cycles
 SCF Done:  E(RB3LYP) =  -1050.56048333     A.U. after   11 cycles
 SCF Done:  E(RB3LYP) =  -1050.56251853     A.U. after    8 cycles
 SCF Done:  E(RB3LYP) =  -1050.56261987     A.U. after    2 cycles
 SCF Done:  E(RB3LYP) =  -1050.56260682     A.U. after    9 cycles
 SCF Done:  E(RB3LYP) =  -1050.56254587     A.U. after    8 cycles
 SCF Done:  E(RB3LYP) =  -1050.56257592     A.U. after    8 cycles
 SCF Done:  E(RB3LYP) =  -1050.56259616     A.U. after    7 cycles
 SCF Done:  E(RB3LYP) =  -1050.56257322     A.U. after    7 cycles
 SCF Done:  E(RB3LYP) =  -1050.56263218     A.U. after    6 cycles
 Optimization completed.
    -- Stationary point found.
 Normal termination of Gaussian 09 at Thu May 18 08:15:47 2023.

 ------------------------------------------------------------------
 #N Geom=AllCheck Guess=TCheck SCRF=Check GenChk RB3LYP/ChkBas Freq
 ------------------------------------------------------------------

 Structure from the checkpoint file:  "/home/scr/guest2/Gau-6347.chk"
 --
 af
 --
 Charge =  0 Multiplicity = 1

                         Standard orientation:
 ---------------------------------------------------------------------
 Center     Atomic      Atomic             Coordinates (Angstroms)
 Number     Number       Type             X           Y           Z
 ---------------------------------------------------------------------
      1          6           0        3.220452    0.650341    1.218777
      2          6           0        1.289968   -0.746066    1.197706
      3          6           0        1.289970    1.410722    0.046836
      4          1           0        4.314728    0.654057    1.225043
      5          1           0        0.908907   -1.769898    1.159387
      6          1           0        0.908330    1.890051    0.952117
      7          1           0        0.909581    1.948829   -0.825376
      8          1           0        2.865258    1.138204    2.132433
      9          1           0        0.908574   -0.260154    2.099604
     10          7           0        2.744121    1.409741    0.047512
     11          7           0        0.727240    0.000042   -0.000367
     12          7           0        2.744329   -0.745772    1.197207
     13          6           0        3.220858    0.730504   -1.171841
     14          1           0        2.866017    1.278007   -2.051203
     15          1           0        4.315120    0.734327   -1.177659
     16          6           0        1.290385   -0.664330   -1.245403
     17          1           0        0.909214   -1.688464   -1.275644
     18          1           0        0.909351   -0.119613   -2.113203
     19          6           0        3.220625   -1.380666   -0.046029
     20          1           0        4.314880   -1.388175   -0.046162
     21          1           0        2.865455   -2.415865   -0.080633
     22          7           0        2.744572   -0.663802   -1.244036
     23         79           0       -1.378054   -0.000161   -0.000096
     24         17           0       -3.649678    0.000409    0.000376
 ---------------------------------------------------------------------

 SCF Done:  E(RB3LYP) =  -1050.56263218     A.U. after    1 cycles

 The electronic state is 1-A.
 Alpha  occ. eigenvalues -- -101.45763 -14.42217 -14.36448 -14.36446 -14.36436
 Alpha  occ. eigenvalues --  -10.27540 -10.27539 -10.27534 -10.26578 -10.26578
 Alpha  occ. eigenvalues --  -10.26573  -9.38878  -7.14959  -7.14339  -7.14339
 Alpha  occ. eigenvalues --   -4.15963  -2.30704  -2.28507  -2.28506  -1.05583
 Alpha  occ. eigenvalues --   -0.94395  -0.93722  -0.93712  -0.74795  -0.74790
 Alpha  occ. eigenvalues --   -0.74320  -0.70163  -0.69031  -0.69027  -0.60511
 Alpha  occ. eigenvalues --   -0.53140  -0.53136  -0.52970  -0.51743  -0.51738
 Alpha  occ. eigenvalues --   -0.51215  -0.47314  -0.42912  -0.42910  -0.42030
 Alpha  occ. eigenvalues --   -0.41993  -0.41985  -0.40370  -0.40306  -0.40305
 Alpha  occ. eigenvalues --   -0.35762  -0.33176  -0.33176  -0.29612  -0.29609
 Alpha  occ. eigenvalues --   -0.29552  -0.26230  -0.25806  -0.25802  -0.24017
 Alpha  occ. eigenvalues --   -0.24017
 Alpha virt. eigenvalues --   -0.00948  -0.00051  -0.00049   0.03167   0.06696
 Alpha virt. eigenvalues --    0.08158   0.08268   0.08270   0.09012   0.09015
 Alpha virt. eigenvalues --    0.12103   0.13382   0.13384   0.13896   0.13899

 Mulliken charges:
               1
     1  C   -0.086810
     2  C   -0.046415
     3  C   -0.046437
     4  H    0.167537
     5  H    0.193578
     6  H    0.193648
     7  H    0.193561
     8  H    0.169038
     9  H    0.193607
    10  N   -0.330521
    11  N   -0.555998
    12  N   -0.330557
    13  C   -0.086969
    14  H    0.169033
    15  H    0.167559
    16  C   -0.046458
    17  H    0.193555
    18  H    0.193582
    19  C   -0.086982
    20  H    0.167581
    21  H    0.169059
    22  N   -0.330394
    23  Au   0.121981
    24  Cl  -0.345778
 Sum of Mulliken charges =   0.00000

 Dipole moment (field-independent basis, Debye):
    X=              9.1981    Y=              0.0007    Z=             -0.0016  Tot=              9.1981
 Quadrupole moment (field-independent basis, Debye-Ang):
   XX=           -111.9580   YY=            -95.4147   ZZ=            -95.4233
   XY=              0.0037   XZ=              0.0004   YZ=              0.0011

  Exact polarizability: 163.412  -0.006 101.452  -0.001   0.002 101.428
 Approx polarizability: 218.716  -0.012 165.282   0.000   0.001 165.258

                      1                      2                      3
                      A                      A                      A
 Frequencies --     61.7849                63.5945               167.1058
 Red. masses --     12.6856                13.1212                 4.9134
 Frc consts  --      0.0285                 0.0313                 0.0808
 IR Inten    --      1.7127                 1.6684                 0.5226

                      4                      5                      6
                      A                      A                      A
 Frequencies --    168.8558               173.3778               356.2058
 Red. masses --      4.8441                 8.8301                39.6240
 Frc consts  --      0.0814                 0.1564                 2.9622
 IR Inten    --      0.5338                 0.0917                40.3404

                      7                      8                      9
                      A                      A                      A
 Frequencies --    383.6439               384.9418               386.6399
 Red. masses --      2.1968                 2.0986                 2.2036
 Frc consts  --      0.1905                 0.1832                 0.1941
 IR Inten    --      0.2741                 0.0409                 0.2652

                     10                     11                     12
                      A                      A                      A
 Frequencies --    459.1332               460.0793               506.8240
 Red. masses --      5.0569                 5.0633                 1.9447
 Frc consts  --      0.6281                 0.6315                 0.2943
 IR Inten    --      0.0058                 0.0145                 1.4507

                     13                     14                     15
                      A                      A                      A
 Frequencies --    507.5590               535.3446               664.9880
 Red. masses --      1.9343                 1.6964                 3.8468
 Frc consts  --      0.2936                 0.2864                 1.0023
 IR Inten    --      1.4156                 0.7153                20.6305

                     16                     17                     18
                      A                      A                      A
 Frequencies --    666.8455               728.5905               788.0977
 Red. masses --      3.8896                 5.1396                 4.6875
 Frc consts  --      1.0191                 1.6075                 1.7153
 IR Inten    --     20.7446                 2.7854                94.3968

                     19                     20                     21
                      A                      A                      A
 Frequencies --    821.4686               843.1288               844.7085
 Red. masses --      6.1151                 3.7115                 3.7078
 Frc consts  --      2.4313                 1.5545                 1.5588
 IR Inten    --      0.7773                24.0558                24.1677

                     22                     23                     24
                      A                      A                      A
 Frequencies --    901.1392               902.0829               941.6056
 Red. masses --      3.5974                 3.5993                 2.6150
 Frc consts  --      1.7212                 1.7257                 1.3660
 IR Inten    --     16.8385                17.8589                 0.0049

                     25                     26                     27
                      A                      A                      A
 Frequencies --   1014.2352              1014.5111              1039.3488
 Red. masses --      2.7137                 2.7408                 4.3028
 Frc consts  --      1.6447                 1.6620                 2.7386
 IR Inten    --     88.7752                90.9518               134.7244

                     28                     29                     30
                      A                      A                      A
 Frequencies --   1043.0951              1043.9767              1072.6631
 Red. masses --      2.6761                 2.6742                 1.8113
 Frc consts  --      1.7155                 1.7172                 1.2279
 IR Inten    --     24.6012                26.4566                 0.0435

                     31                     32                     33
                      A                      A                      A
 Frequencies --   1079.7000              1082.0533              1082.6524
 Red. masses --      3.8070                 2.3795                 2.3537
 Frc consts  --      2.6148                 1.6415                 1.6255
 IR Inten    --     42.6913                 3.7463                 1.6992

                     34                     35                     36
                      A                      A                      A
 Frequencies --   1226.2200              1255.9935              1256.6830
 Red. masses --      1.0081                 2.8382                 2.8424
 Frc consts  --      0.8931                 2.6380                 2.6448
 IR Inten    --      0.0077                44.9788                45.0765

                     37                     38                     39
                      A                      A                      A
 Frequencies --   1287.4994              1346.5929              1347.2565
 Red. masses --      3.5018                 1.2458                 1.2529
 Frc consts  --      3.4200                 1.3310                 1.3399
 IR Inten    --     89.2426                 1.8388                 1.9191

                     40                     41                     42
                      A                      A                      A
 Frequencies --   1350.9331              1367.2353              1369.0376
 Red. masses --      1.2469                 1.1872                 1.1782
 Frc consts  --      1.3408                 1.3076                 1.3011
 IR Inten    --      0.0406                 0.0987                 0.6730

                     43                     44                     45
                      A                      A                      A
 Frequencies --   1369.5989              1379.6878              1380.1905
 Red. masses --      1.1804                 1.2625                 1.2647
 Frc consts  --      1.3045                 1.4159                 1.4195
 IR Inten    --      0.6785                 0.0723                 0.1198

                     46                     47                     48
                      A                      A                      A
 Frequencies --   1415.9048              1416.7400              1423.6027
 Red. masses --      1.2450                 1.2446                 1.2735
 Frc consts  --      1.4706                 1.4719                 1.5206
 IR Inten    --      8.0184                 7.8797                45.4880

                     49                     50                     51
                      A                      A                      A
 Frequencies --   1504.9681              1506.5772              1517.7564
 Red. masses --      1.0811                 1.0817                 1.0856
 Frc consts  --      1.4427                 1.4465                 1.4734
 IR Inten    --      0.1524                 0.0594                26.9231

                     52                     53                     54
                      A                      A                      A
 Frequencies --   1519.6349              1521.0650              1544.8065
 Red. masses --      1.0966                 1.0977                 1.1108
 Frc consts  --      1.4921                 1.4963                 1.5619
 IR Inten    --     19.4743                18.8478                 0.2276

                     55                     56                     57
                      A                      A                      A
 Frequencies --   3075.6065              3075.7948              3082.3730
 Red. masses --      1.0577                 1.0577                 1.0605
 Frc consts  --      5.8949                 5.8957                 5.9363
 IR Inten    --     35.5856                35.4579                56.7561

                     58                     59                     60
                      A                      A                      A
 Frequencies --   3093.3242              3093.3712              3101.1240
 Red. masses --      1.0583                 1.0584                 1.0617
 Frc consts  --      5.9666                 5.9669                 6.0157
 IR Inten    --     16.3570                16.4815                 1.9691

                     61                     62                     63
                      A                      A                      A
 Frequencies --   3127.3339              3127.5811              3133.0407
 Red. masses --      1.1106                 1.1107                 1.1102
 Frc consts  --      6.3999                 6.4011                 6.4205
 IR Inten    --      5.2850                 5.2445                47.3376

                     64                     65                     66
                      A                      A                      A
 Frequencies --   3147.3967              3150.7343              3150.9879
 Red. masses --      1.1119                 1.1127                 1.1127
 Frc consts  --      6.4897                 6.5082                 6.5094
 IR Inten    --      0.0086                11.8587                11.9385

 - Thermochemistry -
 -------------------
 Temperature   298.150 Kelvin.  Pressure   1.00000 Atm.
 Atom     1 has atomic number  6 and mass  12.00000

 Molecular mass:   372.04165 amu.
 Principal axes and moments of inertia in atomic units:
                           1         2         3
     Eigenvalues --   980.348896432.740626432.93346
           X            1.00000   0.00000   0.00000
           Y            0.00000   0.99996   0.00905
           Z            0.00000  -0.00905   0.99996
 This molecule is an asymmetric top.
 Rotational symmetry number  1.
 Warning -- assumption of classical behavior for rotation
           may cause significant error
 Rotational temperatures (Kelvin)      0.08835     0.01346     0.01346
 Rotational constants (GHZ):           1.84092     0.28056     0.28055
 Zero-point vibrational energy     531480.7 (Joules/Mol)
                                  127.02693 (Kcal/Mol)
 Warning -- explicit consideration of  14 degrees of freedom as
           vibrations may cause significant error
 Vibrational temperatures:     88.89    91.50   240.43   242.95   249.45
          (Kelvin)            512.50   551.98   553.84   556.29   660.59
                              661.95   729.21   730.26   770.24   956.77
                              959.44  1048.28  1133.90  1181.91  1213.07
                             1215.35  1296.54  1297.89  1354.76  1459.26
                             1459.65  1495.39  1500.78  1502.05  1543.32
                             1553.45  1556.83  1557.69  1764.25  1807.09
                             1808.08  1852.42  1937.44  1938.40  1943.69
                             1967.14  1969.74  1970.54  1985.06  1985.78
                             2037.17  2038.37  2048.24  2165.31  2167.63
                             2183.71  2186.41  2188.47  2222.63  4425.11
                             4425.38  4434.84  4450.60  4450.67  4461.82
                             4499.53  4499.89  4507.74  4528.40  4533.20
                             4533.56

 Zero-point correction=                           0.202430 (Hartree/Particle)
 Thermal correction to Energy=                    0.212424
 Thermal correction to Enthalpy=                  0.213368
 Thermal correction to Gibbs Free Energy=         0.164632
 Sum of electronic and zero-point Energies=          -1050.360202
 Sum of electronic and thermal Energies=             -1050.350208
 Sum of electronic and thermal Enthalpies=           -1050.349264
 Sum of electronic and thermal Free Energies=        -1050.398000

                     E (Thermal)             CV                S
                      KCal/Mol        Cal/Mol-Kelvin    Cal/Mol-Kelvin
 Total                  133.298             39.669            102.574
 Electronic               0.000              0.000              0.000
 Translational            0.889              2.981             43.634
 Rotational               0.889              2.981             32.073
 Vibrational            131.520             33.707             26.866
 Vibration     1          0.597              1.973              4.399
 Vibration     2          0.597              1.972              4.342
 Vibration     3          0.624              1.883              2.468
 Vibration     4          0.625              1.881              2.448
 Vibration     5          0.627              1.875              2.399
 Vibration     6          0.732              1.563              1.139
 Vibration     7          0.753              1.505              1.025
 Vibration     8          0.754              1.502              1.020
 Vibration     9          0.755              1.499              1.013
 Vibration    10          0.817              1.341              0.769
 Vibration    11          0.818              1.339              0.766
 Vibration    12          0.862              1.235              0.641
 Vibration    13          0.863              1.233              0.639
 Vibration    14          0.890              1.172              0.575

 Normal termination of Gaussian 09 at Thu May 18 08:19:02 2023.
