 Gaussian 09, Revision D.01,
 Gaussian 09:  EM64L-G09RevD.01 24-Apr-2013

 ----------------------------------------
 # opt freq=noraman b3lyp/gen pseudo=read
 ----------------------------------------

 -------------------
 Title Card Required
 -------------------
 Symbolic Z-matrix:
 Charge =  0 Multiplicity = 1

 SCF Done:  E(RB3LYP) =  -1174.79850183     A.U. after   12 cycles
 SCF Done:  E(RB3LYP) =  -1174.79922135     A.U. after   10 cycles
 SCF Done:  E(RB3LYP) =  -1174.79544341     A.U. after   11 cycles
 SCF Done:  E(RB3LYP) =  -1174.79934913     A.U. after    8 cycles
 SCF Done:  E(RB3LYP) =  -1174.79894248     A.U. after   10 cycles
 SCF Done:  E(RB3LYP) =  -1174.79326763     A.U. after   11 cycles
 SCF Done:  E(RB3LYP) =  -1174.79938444     A.U. after    8 cycles
 SCF Done:  E(RB3LYP) =  -1174.79940341     A.U. after    8 cycles
 SCF Done:  E(RB3LYP) =  -1174.79940493     A.U. after    8 cycles
 SCF Done:  E(RB3LYP) =  -1174.79940473     A.U. after    7 cycles
 SCF Done:  E(RB3LYP) =  -1174.79940404     A.U. after    8 cycles
 SCF Done:  E(RB3LYP) =  -1174.79940400     A.U. after    6 cycles
 Optimization completed.
    -- Stationary point found.
 Normal termination of Gaussian 09 at Tue Dec 27 09:16:10 2022.

 ------------------------------------------------------------------
 #N Geom=AllCheck Guess=TCheck SCRF=Check GenChk RB3LYP/ChkBas Freq
 ------------------------------------------------------------------

 Structure from the checkpoint file:  "/home/scr/guest2/Gau-31662.chk"
 -------------------
 Title Card Required
 -------------------
 Charge =  0 Multiplicity = 1

                         Standard orientation:
 ---------------------------------------------------------------------
 Center     Atomic      Atomic             Coordinates (Angstroms)
 Number     Number       Type             X           Y           Z
 ---------------------------------------------------------------------
      1         15           0        1.312103    0.123019   -0.041920
      2          6           0        2.080862   -0.505083    1.524864
      3          6           0        1.753589   -1.973316    1.828685
      4          1           0        1.704411    0.136272    2.329744
      5          1           0        3.165262   -0.347859    1.468570
      6          1           0        2.196266   -2.267332    2.786351
      7          1           0        0.672035   -2.131881    1.892314
      8          1           0        2.149334   -2.647012    1.060837
      9          6           0        1.962890    1.850904   -0.225479
     10          6           0        1.380100    2.845185    0.788479
     11          1           0        1.711883    2.164143   -1.246290
     12          1           0        3.057412    1.822230   -0.155085
     13          1           0        1.768554    3.850698    0.594110
     14          1           0        0.287982    2.883683    0.721796
     15          1           0        1.646785    2.582090    1.817671
     16          6           0        2.104170   -0.838575   -1.420309
     17          6           0        3.637464   -0.844210   -1.478398
     18          1           0        1.681188   -0.431390   -2.346620
     19          1           0        1.715529   -1.860115   -1.339234
     20          1           0        3.974449   -1.449500   -2.327156
     21          1           0        4.047125    0.162313   -1.611782
     22          1           0        4.081073   -1.273961   -0.573973
     23         79           0       -0.957762   -0.033199   -0.080139
     24         17           0       -3.258356   -0.213199   -0.130502
 ---------------------------------------------------------------------

 SCF Done:  E(RB3LYP) =  -1174.79940400     A.U. after    1 cycles

 The electronic state is 1-A.
 Alpha  occ. eigenvalues -- -101.44681 -77.12862 -10.21861 -10.21848 -10.21794
 Alpha  occ. eigenvalues --  -10.20534 -10.19795 -10.19717  -9.37809  -7.13823
 Alpha  occ. eigenvalues --   -7.13304  -7.13302  -6.60799  -4.76945  -4.76936
 Alpha  occ. eigenvalues --   -4.76726  -4.16689  -2.31433  -2.29172  -2.29160
 Alpha  occ. eigenvalues --   -0.82801  -0.78633  -0.78436  -0.73288  -0.69580
 Alpha  occ. eigenvalues --   -0.65468  -0.64521  -0.56974  -0.49709  -0.48214
 Alpha  occ. eigenvalues --   -0.47946  -0.46370  -0.44729  -0.43881  -0.41276
 Alpha  occ. eigenvalues --   -0.40706  -0.40225  -0.39351  -0.39126  -0.38274
 Alpha  occ. eigenvalues --   -0.37601  -0.35440  -0.35392  -0.32704  -0.32643
 Alpha  occ. eigenvalues --   -0.30092  -0.30084  -0.28607  -0.26746  -0.23916
 Alpha  occ. eigenvalues --   -0.23900
 Alpha virt. eigenvalues --   -0.01360  -0.01219   0.01076   0.03389   0.05010
 Alpha virt. eigenvalues --    0.05278   0.07612   0.08751   0.09485   0.10117
 Alpha virt. eigenvalues --    0.10559   0.11577   0.12869   0.13743   0.13947

 Mulliken charges:
               1
     1  P    0.457273
     2  C   -0.444844
     3  C   -0.471349
     4  H    0.191836
     5  H    0.170257
     6  H    0.164147
     7  H    0.207204
     8  H    0.156951
     9  C   -0.446993
    10  C   -0.469189
    11  H    0.186913
    12  H    0.171127
    13  H    0.163498
    14  H    0.207985
    15  H    0.158146
    16  C   -0.454207
    17  C   -0.457031
    18  H    0.194435
    19  H    0.196605
    20  H    0.169117
    21  H    0.159309
    22  H    0.159484
    23  Au   0.016944
    24  Cl  -0.387618
 Sum of Mulliken charges =   0.00000

 Dipole moment (field-independent basis, Debye):
    X=             10.0755    Y=              0.6633    Z=              0.2823  Tot=             10.1012
 Quadrupole moment (field-independent basis, Debye-Ang):
   XX=           -100.4521   YY=            -85.3851   ZZ=            -86.0750
   XY=             -1.2769   XZ=             -1.3628   YZ=             -0.1961

  Exact polarizability: 162.533   0.488 117.835  -1.221  -0.075 110.122
 Approx polarizability: 229.288   3.256 172.147   0.255  -0.062 169.997

                      1                      2                      3
                      A                      A                      A
 Frequencies --     47.3810                50.3186                53.9400
 Red. masses --      4.1454                 4.4628                 3.2874
 Frc consts  --      0.0055                 0.0067                 0.0056
 IR Inten    --      1.2658                 1.0444                 0.5886

                      4                      5                      6
                      A                      A                      A
 Frequencies --     72.9420                84.3798               113.4370
 Red. masses --      2.5280                 2.0967                 3.8580
 Frc consts  --      0.0079                 0.0088                 0.0293
 IR Inten    --      0.0830                 0.0603                 0.0108

                      7                      8                      9
                      A                      A                      A
 Frequencies --    137.1875               141.4144               176.5384
 Red. masses --      3.0270                 2.3645                 2.1221
 Frc consts  --      0.0336                 0.0279                 0.0390
 IR Inten    --      0.0973                 0.2062                 0.5618

                     10                     11                     12
                      A                      A                      A
 Frequencies --    188.1475               226.6794               248.4482
 Red. masses --      1.4495                 1.8388                 1.6374
 Frc consts  --      0.0302                 0.0557                 0.0595
 IR Inten    --      0.1136                 0.9007                 0.5118

                     13                     14                     15
                      A                      A                      A
 Frequencies --    256.2258               266.5227               316.6575
 Red. masses --      1.3988                 1.8672                 2.9598
 Frc consts  --      0.0541                 0.0781                 0.1749
 IR Inten    --      0.0373                 1.1826                 1.2412

                     16                     17                     18
                      A                      A                      A
 Frequencies --    333.1501               381.4316               438.4066
 Red. masses --     27.0625                 3.6219                 3.5347
 Frc consts  --      1.7697                 0.3105                 0.4003
 IR Inten    --     51.1918                 1.6310                 6.5193

                     19                     20                     21
                      A                      A                      A
 Frequencies --    618.6902               671.4078               696.0165
 Red. masses --      3.3849                 2.5471                 3.2389
 Frc consts  --      0.7634                 0.6765                 0.9245
 IR Inten    --      8.9314                 3.2070                11.4509

                     22                     23                     24
                      A                      A                      A
 Frequencies --    749.6136               770.4503               785.5923
 Red. masses --      1.4973                 1.2953                 1.3007
 Frc consts  --      0.4957                 0.4530                 0.4730
 IR Inten    --     31.6245                12.5392                40.0523

                     25                     26                     27
                      A                      A                      A
 Frequencies --    992.6381               995.4694               997.3744
 Red. masses --      1.7295                 1.5963                 1.6861
 Frc consts  --      1.0040                 0.9320                 0.9882
 IR Inten    --      0.1867                 0.2931                 0.4376

                     28                     29                     30
                      A                      A                      A
 Frequencies --   1007.7043              1021.4195              1043.4643
 Red. masses --      1.4809                 1.3484                 1.6260
 Frc consts  --      0.8860                 0.8289                 1.0431
 IR Inten    --      4.6583                 1.6949                 6.0668

                     31                     32                     33
                      A                      A                      A
 Frequencies --   1070.5883              1076.8536              1082.1999
 Red. masses --      1.5833                 1.7095                 1.7948
 Frc consts  --      1.0692                 1.1680                 1.2385
 IR Inten    --     44.0146                14.2749                14.1569

                     34                     35                     36
                      A                      A                      A
 Frequencies --   1280.6899              1282.4717              1289.9646
 Red. masses --      1.2314                 1.2262                 1.1988
 Frc consts  --      1.1900                 1.1882                 1.1754
 IR Inten    --      1.1717                 0.7593                 3.8092

                     37                     38                     39
                      A                      A                      A
 Frequencies --   1305.9264              1309.0641              1320.6915
 Red. masses --      1.3910                 1.3872                 1.3828
 Frc consts  --      1.3977                 1.4006                 1.4211
 IR Inten    --      1.8918                 8.7121                 0.2037

                     40                     41                     42
                      A                      A                      A
 Frequencies --   1441.1690              1443.7388              1445.9655
 Red. masses --      1.2056                 1.2042                 1.2023
 Frc consts  --      1.4753                 1.4789                 1.4810
 IR Inten    --      1.0918                 2.8490                 2.8434

                     43                     44                     45
                      A                      A                      A
 Frequencies --   1487.7003              1489.4120              1491.9780
 Red. masses --      1.0797                 1.0835                 1.0850
 Frc consts  --      1.4079                 1.4162                 1.4230
 IR Inten    --      2.4824                 5.7533                 9.4700

                     46                     47                     48
                      A                      A                      A
 Frequencies --   1527.6694              1529.5799              1530.6970
 Red. masses --      1.0451                 1.0416                 1.0432
 Frc consts  --      1.4370                 1.4358                 1.4401
 IR Inten    --      7.9618                 9.3451                 6.4936

                     49                     50                     51
                      A                      A                      A
 Frequencies --   1531.2737              1533.0097              1534.2886
 Red. masses --      1.0393                 1.0459                 1.0418
 Frc consts  --      1.4359                 1.4482                 1.4449
 IR Inten    --      4.7515                 2.2328                 5.4012

                     52                     53                     54
                      A                      A                      A
 Frequencies --   3051.4075              3053.7394              3058.6435
 Red. masses --      1.0574                 1.0569                 1.0355
 Frc consts  --      5.8010                 5.8068                 5.7075
 IR Inten    --      4.4132                 2.6695                21.0978

                     55                     56                     57
                      A                      A                      A
 Frequencies --   3059.2683              3059.8399              3065.5435
 Red. masses --      1.0382                 1.0376                 1.0605
 Frc consts  --      5.7250                 5.7235                 5.8720
 IR Inten    --     31.6664                21.6832                 5.2571

                     58                     59                     60
                      A                      A                      A
 Frequencies --   3095.2625              3100.3785              3102.7762
 Red. masses --      1.1040                 1.1026                 1.1027
 Frc consts  --      6.2320                 6.2447                 6.2546
 IR Inten    --      2.8071                 4.5740                 0.4654

                     61                     62                     63
                      A                      A                      A
 Frequencies --   3122.3391              3125.1182              3126.1757
 Red. masses --      1.1018                 1.1027                 1.1022
 Frc consts  --      6.3284                 6.3449                 6.3463
 IR Inten    --     19.8796                10.6730                33.4949

                     64                     65                     66
                      A                      A                      A
 Frequencies --   3131.5234              3134.2281              3135.4966
 Red. masses --      1.1031                 1.1034                 1.1036
 Frc consts  --      6.3735                 6.3864                 6.3925
 IR Inten    --     18.3759                32.0922                13.7684

 - Thermochemistry -
 -------------------
 Temperature   298.150 Kelvin.  Pressure   1.00000 Atm.
 Atom     1 has atomic number 15 and mass  30.97376

 Molecular mass:   350.02659 amu.
 Principal axes and moments of inertia in atomic units:
                           1         2         3
     Eigenvalues --  1570.598964380.039764735.99035
           X            0.99993  -0.00954  -0.00725
           Y            0.00955   0.99995   0.00051
           Z            0.00724  -0.00058   0.99997
 This molecule is an asymmetric top.
 Rotational symmetry number  1.
 Warning -- assumption of classical behavior for rotation
           may cause significant error
 Rotational temperatures (Kelvin)      0.05515     0.01977     0.01829
 Rotational constants (GHZ):           1.14908     0.41204     0.38107
 Zero-point vibrational energy     534190.8 (Joules/Mol)
                                  127.67465 (Kcal/Mol)
 Warning -- explicit consideration of  19 degrees of freedom as
           vibrations may cause significant error
 Vibrational temperatures:     68.17    72.40    77.61   104.95   121.40
          (Kelvin)            163.21   197.38   203.46   254.00   270.70
                              326.14   357.46   368.65   383.47   455.60
                              479.33   548.79   630.77   890.16   966.00
                             1001.41  1078.53  1108.50  1130.29  1428.18
                             1432.26  1435.00  1449.86  1469.59  1501.31
                             1540.34  1549.35  1557.04  1842.62  1845.19
                             1855.97  1878.93  1883.45  1900.18  2073.52
                             2077.22  2080.42  2140.47  2142.93  2146.62
                             2197.97  2200.72  2202.33  2203.16  2205.66
                             2207.50  4390.29  4393.64  4400.70  4401.60
                             4402.42  4410.63  4453.39  4460.75  4464.20
                             4492.34  4496.34  4497.86  4505.56  4509.45
                             4511.27

 Zero-point correction=                           0.203463 (Hartree/Particle)
 Thermal correction to Energy=                    0.217969
 Thermal correction to Enthalpy=                  0.218913
 Thermal correction to Gibbs Free Energy=         0.159411
 Sum of electronic and zero-point Energies=          -1174.595941
 Sum of electronic and thermal Energies=             -1174.581435
 Sum of electronic and thermal Enthalpies=           -1174.580491
 Sum of electronic and thermal Free Energies=        -1174.639993

                     E (Thermal)             CV                S
                      KCal/Mol        Cal/Mol-Kelvin    Cal/Mol-Kelvin
 Total                  136.778             48.252            125.232
 Electronic               0.000              0.000              0.000
 Translational            0.889              2.981             43.453
 Rotational               0.889              2.981             31.855
 Vibrational            135.000             42.291             49.924
 Vibration     1          0.595              1.979              4.924
 Vibration     2          0.595              1.977              4.805
 Vibration     3          0.596              1.976              4.667
 Vibration     4          0.599              1.967              4.072
 Vibration     5          0.601              1.960              3.786
 Vibration     6          0.607              1.938              3.209
 Vibration     7          0.614              1.916              2.843
 Vibration     8          0.615              1.912              2.785
 Vibration     9          0.628              1.871              2.365
 Vibration    10          0.633              1.856              2.246
 Vibration    11          0.650              1.800              1.905
 Vibration    12          0.662              1.765              1.742
 Vibration    13          0.666              1.752              1.687
 Vibration    14          0.672              1.735              1.619
 Vibration    15          0.704              1.642              1.327
 Vibration    16          0.715              1.609              1.245
 Vibration    17          0.751              1.510              1.033
 Vibration    18          0.799              1.386              0.832
 Vibration    19          0.979              0.992              0.419

 Optimization completed.
    -- Stationary point found.
 Normal termination of Gaussian 09 at Tue Dec 27 09:18:21 2022.
