 Gaussian 09, Revision D.01,
 Gaussian 09:  EM64L-G09RevD.01 24-Apr-2013

 ----------------------------------------
 # opt freq=noraman b3lyp/gen pseudo=read
 ----------------------------------------

 --
 af
 --
 Symbolic Z-matrix:
 Charge =  0 Multiplicity = 1

 SCF Done:  E(RB3LYP) =  -1340.83084689     A.U. after   13 cycles
 SCF Done:  E(RB3LYP) =  -1340.83296160     A.U. after   10 cycles
 SCF Done:  E(RB3LYP) =  -1340.82749927     A.U. after   11 cycles
 SCF Done:  E(RB3LYP) =  -1340.83323701     A.U. after    9 cycles
 SCF Done:  E(RB3LYP) =  -1340.83169147     A.U. after   11 cycles
 SCF Done:  E(RB3LYP) =  -1340.83328244     A.U. after    8 cycles
 SCF Done:  E(RB3LYP) =  -1340.83319741     A.U. after   10 cycles
 SCF Done:  E(RB3LYP) =  -1340.83352179     A.U. after   10 cycles
 SCF Done:  E(RB3LYP) =  -1340.83354127     A.U. after    8 cycles
 SCF Done:  E(RB3LYP) =  -1340.83355931     A.U. after    8 cycles
 SCF Done:  E(RB3LYP) =  -1340.83356361     A.U. after    8 cycles
 SCF Done:  E(RB3LYP) =  -1340.83356597     A.U. after    7 cycles
 SCF Done:  E(RB3LYP) =  -1340.83356651     A.U. after    7 cycles
 SCF Done:  E(RB3LYP) =  -1340.83356683     A.U. after    7 cycles
 Optimization completed.
    -- Stationary point found.
 Normal termination of Gaussian 09 at Fri May 12 09:25:15 2023.

 ------------------------------------------------------------------
 #N Geom=AllCheck Guess=TCheck SCRF=Check GenChk RB3LYP/ChkBas Freq
 ------------------------------------------------------------------

 Structure from the checkpoint file:  "/home/scr/helius/Gau-3104.chk"
 --
 af
 --
 Charge =  0 Multiplicity = 1

                         Standard orientation:
 ---------------------------------------------------------------------
 Center     Atomic      Atomic             Coordinates (Angstroms)
 Number     Number       Type             X           Y           Z
 ---------------------------------------------------------------------
      1         79           0        1.216009   -0.000008   -0.027495
      2         17           0        3.522232    0.000025    0.082519
      3         15           0       -1.059094    0.000000   -0.012042
      4          7           0       -1.793204    0.000102    1.540824
      5          7           0       -1.707646   -1.423972   -0.667947
      6          7           0       -1.707645    1.423897   -0.668116
      7          6           0       -1.573347    1.209722    2.348138
      8          1           0       -2.279355    1.203420    3.186174
      9          1           0       -0.551289    1.254357    2.757133
     10          1           0       -1.746699    2.105554    1.751693
     11          6           0       -1.573376   -1.209417    2.348289
     12          1           0       -0.551320   -1.254014    2.757292
     13          1           0       -2.279389   -1.202990    3.186321
     14          1           0       -1.746742   -2.105320    1.751955
     15          6           0       -3.142162    1.710384   -0.643045
     16          1           0       -3.636962    1.413919   -1.580517
     17          1           0       -3.617514    1.190810    0.190230
     18          1           0       -3.295191    2.788977   -0.507938
     19          6           0       -0.993403    2.151453   -1.717687
     20          1           0       -1.361226    1.890176   -2.721692
     21          1           0       -1.133812    3.230067   -1.572526
     22          1           0        0.077165    1.938139   -1.671693
     23          6           0       -3.142164   -1.710451   -0.642863
     24          1           0       -3.295202   -2.789025   -0.507608
     25          1           0       -3.617540   -1.190757    0.190325
     26          1           0       -3.636937   -1.414117   -1.580391
     27          6           0       -0.993380   -2.151692   -1.717380
     28          1           0        0.077184   -1.938355   -1.671395
     29          1           0       -1.133788   -3.230285   -1.572054
     30          1           0       -1.361192   -1.890558   -2.721426
 ---------------------------------------------------------------------

 SCF Done:  E(RB3LYP) =  -1340.83356683     A.U. after    1 cycles

 The electronic state is 1-A.
 Alpha  occ. eigenvalues -- -101.44721 -77.17977 -14.35669 -14.35669 -14.35554
 Alpha  occ. eigenvalues --  -10.22567 -10.22567 -10.21999 -10.21998 -10.21682
 Alpha  occ. eigenvalues --  -10.21680  -9.37847  -7.13860  -7.13344  -7.13340
 Alpha  occ. eigenvalues --   -6.64651  -4.80939  -4.80858  -4.80644  -4.16856
 Alpha  occ. eigenvalues --   -2.31589  -2.29349  -2.29328  -0.96556  -0.92398
 Alpha  occ. eigenvalues --   -0.91774  -0.73704  -0.73376  -0.73113  -0.72680
 Alpha  occ. eigenvalues --   -0.72270  -0.65373  -0.64487  -0.57385  -0.51687
 Alpha  occ. eigenvalues --   -0.51457  -0.50181  -0.48041  -0.47648  -0.46799
 Alpha  occ. eigenvalues --   -0.45603  -0.45232  -0.44306  -0.41814  -0.41246
 Alpha  occ. eigenvalues --   -0.41078  -0.40966  -0.39896  -0.39547  -0.39096
 Alpha  occ. eigenvalues --   -0.38577  -0.38441  -0.34164  -0.33851  -0.31022
 Alpha  occ. eigenvalues --   -0.30329  -0.30200  -0.27875  -0.26782  -0.24789
 Alpha  occ. eigenvalues --   -0.24313  -0.23854  -0.23660
 Alpha virt. eigenvalues --   -0.01228  -0.00419   0.01540   0.03944   0.05516
 Alpha virt. eigenvalues --    0.05815   0.07404   0.09520   0.09975   0.10633
 Alpha virt. eigenvalues --    0.11660   0.12000   0.12032   0.13093   0.13614

 Mulliken charges:
               1
     1  Au  -0.105938
     2  Cl  -0.388535
     3  P    0.934449
     4  N   -0.536982
     5  N   -0.510890
     6  N   -0.510891
     7  C   -0.331514
     8  H    0.156786
     9  H    0.176755
    10  H    0.180912
    11  C   -0.331512
    12  H    0.176754
    13  H    0.156786
    14  H    0.180911
    15  C   -0.316562
    16  H    0.150729
    17  H    0.178424
    18  H    0.158804
    19  C   -0.333098
    20  H    0.150020
    21  H    0.159537
    22  H    0.228599
    23  C   -0.316562
    24  H    0.158804
    25  H    0.178424
    26  H    0.150730
    27  C   -0.333096
    28  H    0.228600
    29  H    0.159537
    30  H    0.150020
 Sum of Mulliken charges =   0.00000

 Dipole moment (field-independent basis, Debye):
    X=             -9.7869    Y=             -0.0001    Z=             -0.5222  Tot=              9.8008
 Quadrupole moment (field-independent basis, Debye-Ang):
   XX=           -122.2609   YY=           -100.6545   ZZ=           -100.5629
   XY=             -0.0001   XZ=             -0.2498   YZ=              0.0000

  Exact polarizability: 180.038   0.000 137.571   1.680   0.000 135.611
 Approx polarizability: 253.685   0.000 202.024  -0.135   0.000 197.655

                      1                      2                      3
                      A                      A                      A
 Frequencies --     43.9699                50.8458                58.9930
 Red. masses --      2.9330                 5.8623                 7.0549
 Frc consts  --      0.0033                 0.0089                 0.0145
 IR Inten    --      1.3018                 1.6697                 0.5188

                      4                      5                      6
                      A                      A                      A
 Frequencies --     77.9598                99.6985               105.7024
 Red. masses --      3.1352                 2.8058                 2.9914
 Frc consts  --      0.0112                 0.0164                 0.0197
 IR Inten    --      0.1124                 0.0026                 1.2663

                      7                      8                      9
                      A                      A                      A
 Frequencies --    114.4007               124.2003               137.2062
 Red. masses --      2.1449                 2.3393                 3.5877
 Frc consts  --      0.0165                 0.0213                 0.0398
 IR Inten    --      1.4764                 0.4056                 0.9023

                     10                     11                     12
                      A                      A                      A
 Frequencies --    148.0323               185.6104               195.6154
 Red. masses --      4.0730                 1.0902                 1.3683
 Frc consts  --      0.0526                 0.0221                 0.0308
 IR Inten    --      0.1154                 0.3881                 0.2120

                     13                     14                     15
                      A                      A                      A
 Frequencies --    200.2223               207.3915               218.8230
 Red. masses --      1.4975                 1.1831                 1.3362
 Frc consts  --      0.0354                 0.0300                 0.0377
 IR Inten    --      0.0193                 0.0060                 0.4374

                     16                     17                     18
                      A                      A                      A
 Frequencies --    247.6318               260.9498               267.5885
 Red. masses --      2.3568                 1.2330                 1.7223
 Frc consts  --      0.0852                 0.0495                 0.0727
 IR Inten    --      1.1461                 0.3317                 8.1070

                     19                     20                     21
                      A                      A                      A
 Frequencies --    321.7298               332.8716               339.5157
 Red. masses --      3.0609                35.6050                 2.8012
 Frc consts  --      0.1867                 2.3244                 0.1902
 IR Inten    --      2.6964                54.2009                 4.1651

                     22                     23                     24
                      A                      A                      A
 Frequencies --    355.3914               374.5527               375.3099
 Red. masses --      3.7048                 3.0119                 3.1750
 Frc consts  --      0.2757                 0.2490                 0.2635
 IR Inten    --      9.5832                 0.0694                11.3565

                     25                     26                     27
                      A                      A                      A
 Frequencies --    440.6618               442.6323               515.6125
 Red. masses --      3.1356                 3.2279                 3.7244
 Frc consts  --      0.3587                 0.3726                 0.5834
 IR Inten    --      1.8385                14.6814                 9.7214

                     28                     29                     30
                      A                      A                      A
 Frequencies --    671.3545               707.9954               708.5229
 Red. masses --      6.1049                 5.8572                 6.5044
 Frc consts  --      1.6212                 1.7298                 1.9238
 IR Inten    --     65.4582                68.0906                68.5615

                     31                     32                     33
                      A                      A                      A
 Frequencies --    974.2481               983.8526              1000.3134
 Red. masses --      2.9183                 2.6476                 2.6466
 Frc consts  --      1.6320                 1.5099                 1.5603
 IR Inten    --    206.9101               215.7622               104.8885

                     34                     35                     36
                      A                      A                      A
 Frequencies --   1079.7773              1090.7783              1094.6044
 Red. masses --      1.6299                 1.4646                 1.4390
 Frc consts  --      1.1196                 1.0267                 1.0158
 IR Inten    --     16.2891                 0.7804                16.7795

                     37                     38                     39
                      A                      A                      A
 Frequencies --   1133.3934              1137.3797              1137.4385
 Red. masses --      1.2215                 1.2252                 1.2222
 Frc consts  --      0.9245                 0.9339                 0.9317
 IR Inten    --      0.4699                 0.4317                 3.7770

                     40                     41                     42
                      A                      A                      A
 Frequencies --   1181.2221              1181.8002              1184.7411
 Red. masses --      1.3551                 1.3891                 1.3898
 Frc consts  --      1.1140                 1.1431                 1.1493
 IR Inten    --      1.8688                11.0300                 3.3369

                     43                     44                     45
                      A                      A                      A
 Frequencies --   1188.0606              1216.7996              1223.5491
 Red. masses --      3.1462                 4.1456                 4.4632
 Frc consts  --      2.6165                 3.6164                 3.9368
 IR Inten    --     29.7426                10.5584               158.8299

                     46                     47                     48
                      A                      A                      A
 Frequencies --   1293.9469              1317.3982              1318.6455
 Red. masses --      1.9933                 2.1979                 2.2177
 Frc consts  --      1.9664                 2.2474                 2.2720
 IR Inten    --     13.2770                26.3940                46.4469

                     49                     50                     51
                      A                      A                      A
 Frequencies --   1462.0547              1463.6756              1469.8382
 Red. masses --      1.1382                 1.1335                 1.1353
 Frc consts  --      1.4335                 1.4308                 1.4451
 IR Inten    --      0.2560                 0.0209                 0.2435

                     52                     53                     54
                      A                      A                      A
 Frequencies --   1491.2059              1491.4452              1498.0751
 Red. masses --      1.1546                 1.1553                 1.1589
 Frc consts  --      1.5128                 1.5141                 1.5323
 IR Inten    --      0.0582                 0.7068                 0.3456

                     55                     56                     57
                      A                      A                      A
 Frequencies --   1507.1491              1511.2043              1512.1261
 Red. masses --      1.0433                 1.0463                 1.0438
 Frc consts  --      1.3963                 1.4078                 1.4062
 IR Inten    --      2.0442                 0.4486                 0.1659

                     58                     59                     60
                      A                      A                      A
 Frequencies --   1522.2372              1524.7675              1529.3095
 Red. masses --      1.0453                 1.0489                 1.0470
 Frc consts  --      1.4271                 1.4368                 1.4427
 IR Inten    --     34.0419                 5.9214                 0.1588

                     61                     62                     63
                      A                      A                      A
 Frequencies --   1531.7687              1534.8979              1537.4079
 Red. masses --      1.0479                 1.0466                 1.0497
 Frc consts  --      1.4486                 1.4528                 1.4619
 IR Inten    --      2.1770                 4.9554                33.7717

                     64                     65                     66
                      A                      A                      A
 Frequencies --   1545.9541              1551.4537              1556.6174
 Red. masses --      1.0490                 1.0629                 1.0548
 Frc consts  --      1.4771                 1.5073                 1.5059
 IR Inten    --     15.3483                 0.0845                 1.4823

                     67                     68                     69
                      A                      A                      A
 Frequencies --   3006.9722              3009.5456              3010.2654
 Red. masses --      1.0511                 1.0441                 1.0532
 Frc consts  --      5.5997                 5.5720                 5.6232
 IR Inten    --     20.4527                 3.4568               108.0675

                     70                     71                     72
                      A                      A                      A
 Frequencies --   3011.5244              3012.2697              3018.1635
 Red. masses --      1.0439                 1.0468                 1.0466
 Frc consts  --      5.5778                 5.5965                 5.6169
 IR Inten    --     54.6529                34.4500               146.8315

                     73                     74                     75
                      A                      A                      A
 Frequencies --   3068.8465              3071.3273              3074.4638
 Red. masses --      1.0945                 1.0959                 1.0966
 Frc consts  --      6.0733                 6.0905                 6.1070
 IR Inten    --     93.3213                22.3418                17.1733

                     76                     77                     78
                      A                      A                      A
 Frequencies --   3075.2208              3091.6633              3091.7505
 Red. masses --      1.0974                 1.0875                 1.0908
 Frc consts  --      6.1146                 6.1246                 6.1432
 IR Inten    --      2.2364                65.3188                 4.0390

                     79                     80                     81
                      A                      A                      A
 Frequencies --   3141.9469              3142.0336              3158.5806
 Red. masses --      1.0986                 1.0986                 1.0973
 Frc consts  --      6.3899                 6.3900                 6.4499
 IR Inten    --     13.5692                 5.7525                 5.0526

                     82                     83                     84
                      A                      A                      A
 Frequencies --   3165.4186              3174.5227              3174.6496
 Red. masses --      1.0958                 1.0969                 1.0963
 Frc consts  --      6.4691                 6.5127                 6.5100
 IR Inten    --     14.0584                 6.3305                13.6119

 - Thermochemistry -
 -------------------
 Temperature   298.150 Kelvin.  Pressure   1.00000 Atm.
 Atom     1 has atomic number 79 and mass 196.96660

 Molecular mass:   395.05929 amu.
 Principal axes and moments of inertia in atomic units:
                           1         2         3
     Eigenvalues --  2424.556835782.630385833.61282
           X            1.00000   0.00000   0.00142
           Y            0.00000   1.00000   0.00000
           Z           -0.00142   0.00000   1.00000
 This molecule is an asymmetric top.
 Rotational symmetry number  1.
 Warning -- assumption of classical behavior for rotation
           may cause significant error
 Rotational temperatures (Kelvin)      0.03572     0.01498     0.01485
 Rotational constants (GHZ):           0.74436     0.31210     0.30937
 Zero-point vibrational energy     668768.1 (Joules/Mol)
                                  159.83941 (Kcal/Mol)
 Warning -- explicit consideration of  27 degrees of freedom as
           vibrations may cause significant error
 Vibrational temperatures:     63.26    73.16    84.88   112.17   143.44
          (Kelvin)            152.08   164.60   178.70   197.41   212.99
                              267.05   281.45   288.07   298.39   314.84
                              356.29   375.45   385.00   462.90   478.93
                              488.49   511.33   538.90   539.99   634.01
                              636.85   741.85   965.93  1018.65  1019.41
                             1401.72  1415.54  1439.23  1553.56  1569.38
                             1574.89  1630.70  1636.43  1636.52  1699.51
                             1700.34  1704.58  1709.35  1750.70  1760.41
                             1861.70  1895.44  1897.23  2103.57  2105.90
                             2114.77  2145.51  2145.85  2155.39  2168.45
                             2174.28  2175.61  2190.16  2193.80  2200.33
                             2203.87  2208.37  2211.98  2224.28  2232.19
                             2239.62  4326.36  4330.06  4331.10  4332.91
                             4333.98  4342.46  4415.38  4418.95  4423.46
                             4424.55  4448.21  4448.33  4520.56  4520.68
                             4544.49  4554.33  4567.42  4567.61

 Zero-point correction=                           0.254720 (Hartree/Particle)
 Thermal correction to Energy=                    0.272961
 Thermal correction to Enthalpy=                  0.273905
 Thermal correction to Gibbs Free Energy=         0.207159
 Sum of electronic and zero-point Energies=          -1340.578847
 Sum of electronic and thermal Energies=             -1340.560606
 Sum of electronic and thermal Enthalpies=           -1340.559662
 Sum of electronic and thermal Free Energies=        -1340.626408

                     E (Thermal)             CV                S
                      KCal/Mol        Cal/Mol-Kelvin    Cal/Mol-Kelvin
 Total                  171.285             61.576            140.479
 Electronic               0.000              0.000              0.000
 Translational            0.889              2.981             43.813
 Rotational               0.889              2.981             32.770
 Vibrational            169.508             55.614             63.896
 Vibration     1          0.595              1.980              5.072
 Vibration     2          0.595              1.977              4.784
 Vibration     3          0.596              1.974              4.491
 Vibration     4          0.599              1.964              3.942
 Vibration     5          0.604              1.949              3.460
 Vibration     6          0.605              1.945              3.346
 Vibration     7          0.607              1.937              3.193
 Vibration     8          0.610              1.929              3.034
 Vibration     9          0.614              1.916              2.842
 Vibration    10          0.617              1.905              2.697
 Vibration    11          0.632              1.860              2.271
 Vibration    12          0.636              1.846              2.174
 Vibration    13          0.638              1.840              2.131
 Vibration    14          0.641              1.829              2.067
 Vibration    15          0.647              1.812              1.969
 Vibration    16          0.661              1.767              1.747
 Vibration    17          0.669              1.744              1.655
 Vibration    18          0.673              1.733              1.612
 Vibration    19          0.707              1.632              1.301
 Vibration    20          0.715              1.610              1.246
 Vibration    21          0.719              1.597              1.214
 Vibration    22          0.731              1.564              1.142
 Vibration    23          0.746              1.524              1.061
 Vibration    24          0.746              1.523              1.058
 Vibration    25          0.801              1.381              0.825
 Vibration    26          0.802              1.377              0.818
 Vibration    27          0.871              1.215              0.620

 Normal termination of Gaussian 09 at Fri May 12 09:31:33 2023.
