 Gaussian 09, Revision D.01,
 Gaussian 09:  EM64L-G09RevD.01 24-Apr-2013

 -----------------------------------------
 # opt freq=noraman rb3lyp/gen pseudo=read
 -----------------------------------------

 --
 af
 --
 Symbolic Z-matrix:
 Charge =  0 Multiplicity = 1

 SCF Done:  E(RB3LYP) =  -3286.01727210     A.U. after   12 cycles
 SCF Done:  E(RB3LYP) =  -3286.01876310     A.U. after   10 cycles
 SCF Done:  E(RB3LYP) =  -3286.01265246     A.U. after   12 cycles
 SCF Done:  E(RB3LYP) =  -3286.01907090     A.U. after    9 cycles
 SCF Done:  E(RB3LYP) =  -3286.01724426     A.U. after   11 cycles
 SCF Done:  E(RB3LYP) =  -3286.01908332     A.U. after    7 cycles
 SCF Done:  E(RB3LYP) =  -3286.01885585     A.U. after   10 cycles
 SCF Done:  E(RB3LYP) =  -3286.01922852     A.U. after    9 cycles
 SCF Done:  E(RB3LYP) =  -3286.01922929     A.U. after    7 cycles
 SCF Done:  E(RB3LYP) =  -3286.01922940     A.U. after    7 cycles
 SCF Done:  E(RB3LYP) =  -3286.01922935     A.U. after    7 cycles
 SCF Done:  E(RB3LYP) =  -3286.01922930     A.U. after    7 cycles
 SCF Done:  E(RB3LYP) =  -3286.01922928     A.U. after    6 cycles
 Optimization completed.
    -- Stationary point found.
 Normal termination of Gaussian 09 at Thu Mar 16 15:49:14 2023.

 ------------------------------------------------------------------
 #N Geom=AllCheck Guess=TCheck SCRF=Check GenChk RB3LYP/ChkBas Freq
 ------------------------------------------------------------------

 Structure from the checkpoint file:  "/home/scr/helius/Gau-21445.chk"
 --
 af
 --
 Charge =  0 Multiplicity = 1

                         Standard orientation:
 ---------------------------------------------------------------------
 Center     Atomic      Atomic             Coordinates (Angstroms)
 Number     Number       Type             X           Y           Z
 ---------------------------------------------------------------------
      1         15           0        1.668915    0.110912   -0.046988
      2          6           0        2.439857   -0.531608    1.513332
      3          6           0        2.088580   -1.993892    1.818801
      4          1           0        2.080674    0.115713    2.321352
      5          1           0        3.526466   -0.393739    1.449091
      6          1           0        2.532156   -2.296338    2.773448
      7          1           0        1.004762   -2.133051    1.889286
      8          1           0        2.467195   -2.674130    1.048065
      9          6           0        2.346815    1.828561   -0.232786
     10          6           0        1.776244    2.833110    0.778090
     11          1           0        2.102248    2.143777   -1.254576
     12          1           0        3.440724    1.784608   -0.160141
     13          1           0        2.182351    3.831925    0.585113
     14          1           0        0.685223    2.889629    0.706429
     15          1           0        2.033504    2.565990    1.808678
     16          6           0        2.436011   -0.861672   -1.432000
     17          6           0        3.968469   -0.890355   -1.502405
     18          1           0        2.011831   -0.448018   -2.354882
     19          1           0        2.032645   -1.877286   -1.348066
     20          1           0        4.289947   -1.502191   -2.352519
     21          1           0        4.391788    0.109783   -1.641055
     22          1           0        4.412875   -1.324707   -0.600556
     23         79           0       -0.613711   -0.002948   -0.063165
     24         35           0       -3.030881   -0.129361   -0.080943
 ---------------------------------------------------------------------

 SCF Done:  E(RB3LYP) =  -3286.01922928     A.U. after    1 cycles

 The electronic state is 1-A.
 Alpha  occ. eigenvalues -- -482.60190 -77.12714 -61.68812 -56.25606 -56.25413
 Alpha  occ. eigenvalues --  -56.25412 -10.21766 -10.21748 -10.21694 -10.20450
 Alpha  occ. eigenvalues --  -10.19707 -10.19615  -8.45942  -6.60644  -6.47178
 Alpha  occ. eigenvalues --   -6.46502  -6.46500  -4.76791  -4.76781  -4.76569
 Alpha  occ. eigenvalues --   -4.16435  -2.59217  -2.59014  -2.59013  -2.58476
 Alpha  occ. eigenvalues --   -2.58476  -2.31118  -2.28953  -2.28941  -0.82681
 Alpha  occ. eigenvalues --   -0.78533  -0.78339  -0.69580  -0.68147  -0.65371
 Alpha  occ. eigenvalues --   -0.64410  -0.56823  -0.49598  -0.48099  -0.47846
 Alpha  occ. eigenvalues --   -0.46264  -0.44636  -0.43683  -0.41182  -0.40516
 Alpha  occ. eigenvalues --   -0.40126  -0.39160  -0.38959  -0.38005  -0.37494
 Alpha  occ. eigenvalues --   -0.35205  -0.35147  -0.32285  -0.32224  -0.29915
 Alpha  occ. eigenvalues --   -0.29909  -0.27732  -0.26529  -0.22581  -0.22566
 Alpha virt. eigenvalues --   -0.01320  -0.01176   0.01102   0.03432   0.05057
 Alpha virt. eigenvalues --    0.05316   0.07614   0.08772   0.09526   0.10096
 Alpha virt. eigenvalues --    0.10632   0.11528   0.12794   0.13780   0.13979

 Mulliken charges:
               1
     1  P    0.463007
     2  C   -0.444877
     3  C   -0.471355
     4  H    0.191636
     5  H    0.169918
     6  H    0.163737
     7  H    0.207418
     8  H    0.156728
     9  C   -0.447188
    10  C   -0.469178
    11  H    0.186430
    12  H    0.170768
    13  H    0.162913
    14  H    0.208724
    15  H    0.158169
    16  C   -0.454505
    17  C   -0.456727
    18  H    0.194204
    19  H    0.196243
    20  H    0.168640
    21  H    0.159184
    22  H    0.159256
    23  Au   0.042751
    24  Br  -0.415897
 Sum of Mulliken charges =   0.00000

 Dipole moment (field-independent basis, Debye):
    X=              9.7346    Y=              0.4360    Z=              0.1685  Tot=              9.7458
 Quadrupole moment (field-independent basis, Debye-Ang):
   XX=            -97.7073   YY=            -91.4468   ZZ=            -92.1599
   XY=             -0.5323   XZ=             -0.9988   YZ=             -0.1539

  Exact polarizability: 178.005  -0.075 122.685  -1.680  -0.078 114.934
 Approx polarizability: 255.017   2.573 183.213  -0.499  -0.118 181.101

                      1                      2                      3
                      A                      A                      A
 Frequencies --     38.2404                42.1483                52.8494
 Red. masses --      6.0824                 7.1415                 2.3567
 Frc consts  --      0.0052                 0.0075                 0.0039
 IR Inten    --      0.1491                 0.0835                 0.0277

                      4                      5                      6
                      A                      A                      A
 Frequencies --     71.6109                82.1791               111.4977
 Red. masses --      2.4105                 2.0785                 3.8006
 Frc consts  --      0.0073                 0.0083                 0.0278
 IR Inten    --      0.0481                 0.3183                 0.1514

                      7                      8                      9
                      A                      A                      A
 Frequencies --    132.7870               140.1786               174.0267
 Red. masses --      3.0973                 2.3851                 2.0425
 Frc consts  --      0.0322                 0.0276                 0.0364
 IR Inten    --      0.4952                 0.4713                 0.8591

                     10                     11                     12
                      A                      A                      A
 Frequencies --    188.5381               215.9606               240.8593
 Red. masses --      1.4865                 2.9242                 2.0187
 Frc consts  --      0.0311                 0.0804                 0.0690
 IR Inten    --      0.2218                 9.0821                 7.4812

                     13                     14                     15
                      A                      A                      A
 Frequencies --    252.7556               255.7730               267.1183
 Red. masses --      2.4501                 1.3952                 1.9982
 Frc consts  --      0.0922                 0.0538                 0.0840
 IR Inten    --      5.8047                 0.0191                 0.1190

                     16                     17                     18
                      A                      A                      A
 Frequencies --    316.1245               379.8776               436.9982
 Red. masses --      2.8999                 3.5585                 3.5197
 Frc consts  --      0.1707                 0.3026                 0.3960
 IR Inten    --      0.9356                 2.8642                 8.2647

                     19                     20                     21
                      A                      A                      A
 Frequencies --    617.9193               671.2073               695.6038
 Red. masses --      3.3851                 2.5525                 3.2354
 Frc consts  --      0.7615                 0.6775                 0.9224
 IR Inten    --      9.7126                 3.2003                11.5189

                     22                     23                     24
                      A                      A                      A
 Frequencies --    748.7079               770.5158               785.2698
 Red. masses --      1.4948                 1.2973                 1.2998
 Frc consts  --      0.4937                 0.4538                 0.4723
 IR Inten    --     32.6194                12.7014                42.4655

                     25                     26                     27
                      A                      A                      A
 Frequencies --    992.6974               995.6950               997.4954
 Red. masses --      1.7290                 1.5528                 1.7215
 Frc consts  --      1.0039                 0.9070                 1.0092
 IR Inten    --      0.1826                 0.3960                 0.4071

                     28                     29                     30
                      A                      A                      A
 Frequencies --   1007.7683              1021.5971              1043.6120
 Red. masses --      1.4935                 1.3594                 1.6131
 Frc consts  --      0.8937                 0.8359                 1.0351
 IR Inten    --      4.8565                 1.7326                 6.2457

                     31                     32                     33
                      A                      A                      A
 Frequencies --   1070.3383              1077.3793              1082.2995
 Red. masses --      1.5776                 1.7088                 1.7969
 Frc consts  --      1.0649                 1.1686                 1.2401
 IR Inten    --     46.9637                15.5886                14.3222

                     34                     35                     36
                      A                      A                      A
 Frequencies --   1281.0889              1282.6810              1290.8530
 Red. masses --      1.2333                 1.2250                 1.1964
 Frc consts  --      1.1926                 1.1875                 1.1746
 IR Inten    --      0.8990                 1.1053                 3.8018

                     37                     38                     39
                      A                      A                      A
 Frequencies --   1305.5846              1310.2992              1320.5965
 Red. masses --      1.3889                 1.3856                 1.3821
 Frc consts  --      1.3949                 1.4016                 1.4201
 IR Inten    --      2.1094                10.3922                 0.2193

                     40                     41                     42
                      A                      A                      A
 Frequencies --   1441.4992              1443.9243              1446.0709
 Red. masses --      1.2060                 1.2039                 1.2022
 Frc consts  --      1.4765                 1.4789                 1.4812
 IR Inten    --      1.0316                 2.8049                 2.7212

                     43                     44                     45
                      A                      A                      A
 Frequencies --   1487.5564              1489.4093              1492.1419
 Red. masses --      1.0801                 1.0829                 1.0855
 Frc consts  --      1.4082                 1.4154                 1.4240
 IR Inten    --      2.8765                 5.9541                 8.7705

                     46                     47                     48
                      A                      A                      A
 Frequencies --   1528.1196              1529.2111              1530.7079
 Red. masses --      1.0449                 1.0424                 1.0428
 Frc consts  --      1.4375                 1.4362                 1.4396
 IR Inten    --      6.6625                 9.5962                 5.4213

                     49                     50                     51
                      A                      A                      A
 Frequencies --   1531.4739              1533.3774              1534.5735
 Red. masses --      1.0391                 1.0479                 1.0398
 Frc consts  --      1.4359                 1.4517                 1.4427
 IR Inten    --      6.0026                 3.3753                 4.4197

                     52                     53                     54
                      A                      A                      A
 Frequencies --   3051.3119              3053.6558              3058.3906
 Red. masses --      1.0578                 1.0570                 1.0354
 Frc consts  --      5.8025                 5.8073                 5.7064
 IR Inten    --      5.4117                 2.9467                20.6789

                     55                     56                     57
                      A                      A                      A
 Frequencies --   3059.2032              3059.7275              3065.2777
 Red. masses --      1.0359                 1.0395                 1.0605
 Frc consts  --      5.7118                 5.7335                 5.8707
 IR Inten    --     26.7265                27.9951                 5.2903

                     58                     59                     60
                      A                      A                      A
 Frequencies --   3094.9535              3100.2459              3102.4914
 Red. masses --      1.1041                 1.1026                 1.1026
 Frc consts  --      6.2311                 6.2438                 6.2533
 IR Inten    --      3.0968                 4.5610                 0.5073

                     61                     62                     63
                      A                      A                      A
 Frequencies --   3122.0918              3124.8451              3125.8120
 Red. masses --      1.1017                 1.1026                 1.1021
 Frc consts  --      6.3272                 6.3437                 6.3447
 IR Inten    --     21.1382                 9.6511                33.4873

                     64                     65                     66
                      A                      A                      A
 Frequencies --   3131.9214              3134.0141              3135.2316
 Red. masses --      1.1031                 1.1034                 1.1035
 Frc consts  --      6.3749                 6.3854                 6.3912
 IR Inten    --     17.5548                34.5777                13.8959

 - Thermochemistry -
 -------------------
 Temperature   298.150 Kelvin.  Pressure   1.00000 Atm.
 Atom     1 has atomic number 15 and mass  30.97376

 Molecular mass:   393.97608 amu.
 Principal axes and moments of inertia in atomic units:
                           1         2         3
     Eigenvalues --  1572.113625877.121946235.96979
           X            0.99996  -0.00769  -0.00458
           Y            0.00770   0.99997   0.00156
           Z            0.00456  -0.00159   0.99999
 This molecule is an asymmetric top.
 Rotational symmetry number  1.
 Warning -- assumption of classical behavior for rotation
           may cause significant error
 Rotational temperatures (Kelvin)      0.05509     0.01474     0.01389
 Rotational constants (GHZ):           1.14797     0.30708     0.28941
 Zero-point vibrational energy     533390.8 (Joules/Mol)
                                  127.48345 (Kcal/Mol)
 Warning -- explicit consideration of  19 degrees of freedom as
           vibrations may cause significant error
 Vibrational temperatures:     55.02    60.64    76.04   103.03   118.24
          (Kelvin)            160.42   191.05   201.69   250.39   271.26
                              310.72   346.54   363.66   368.00   384.32
                              454.83   546.56   628.74   889.05   965.72
                             1000.82  1077.22  1108.60  1129.83  1428.27
                             1432.58  1435.17  1449.95  1469.85  1501.52
                             1539.98  1550.11  1557.19  1843.20  1845.49
                             1857.25  1878.44  1885.23  1900.04  2073.99
                             2077.48  2080.57  2140.26  2142.93  2146.86
                             2198.62  2200.19  2202.34  2203.45  2206.19
                             2207.91  4390.15  4393.52  4400.34  4401.51
                             4402.26  4410.25  4452.94  4460.56  4463.79
                             4491.99  4495.95  4497.34  4506.13  4509.14
                             4510.89

 Zero-point correction=                           0.203158 (Hartree/Particle)
 Thermal correction to Energy=                    0.217860
 Thermal correction to Enthalpy=                  0.218805
 Thermal correction to Gibbs Free Energy=         0.158076
 Sum of electronic and zero-point Energies=          -3285.816071
 Sum of electronic and thermal Energies=             -3285.801369
 Sum of electronic and thermal Enthalpies=           -3285.800425
 Sum of electronic and thermal Free Energies=        -3285.861153

                     E (Thermal)             CV                S
                      KCal/Mol        Cal/Mol-Kelvin    Cal/Mol-Kelvin
 Total                  136.709             48.458            127.814
 Electronic               0.000              0.000              0.000
 Translational            0.889              2.981             43.805
 Rotational               0.889              2.981             32.422
 Vibrational            134.932             42.496             51.587
 Vibration     1          0.594              1.982              5.348
 Vibration     2          0.595              1.980              5.155
 Vibration     3          0.596              1.976              4.708
 Vibration     4          0.598              1.968              4.109
 Vibration     5          0.600              1.961              3.838
 Vibration     6          0.607              1.940              3.243
 Vibration     7          0.613              1.921              2.905
 Vibration     8          0.615              1.913              2.801
 Vibration     9          0.627              1.874              2.392
 Vibration    10          0.633              1.856              2.242
 Vibration    11          0.645              1.817              1.993
 Vibration    12          0.658              1.778              1.797
 Vibration    13          0.664              1.758              1.711
 Vibration    14          0.666              1.753              1.690
 Vibration    15          0.672              1.733              1.615
 Vibration    16          0.703              1.643              1.330
 Vibration    17          0.750              1.513              1.040
 Vibration    18          0.797              1.390              0.836
 Vibration    19          0.978              0.994              0.420

 Optimization completed on the basis of negligible forces.
    -- Stationary point found.
 Normal termination of Gaussian 09 at Thu Mar 16 15:52:22 2023.
