 Gaussian 09, Revision D.01,
 Gaussian 09:  EM64L-G09RevD.01 24-Apr-2013

 ----------------------------------------
 # b3lyp/gen opt freq=noraman pseudo=read
 ----------------------------------------

 -------------------
 Title Card Required
 -------------------
 Symbolic Z-matrix:
 Charge =  0 Multiplicity = 1

 SCF Done:  E(RB3LYP) =  -994.833722510     A.U. after   16 cycles
 SCF Done:  E(RB3LYP) =  -994.852829754     A.U. after   14 cycles
 SCF Done:  E(RB3LYP) =  -994.855078677     A.U. after   12 cycles
 SCF Done:  E(RB3LYP) =  -994.856440768     A.U. after   12 cycles
 SCF Done:  E(RB3LYP) =  -994.857393928     A.U. after   12 cycles
 SCF Done:  E(RB3LYP) =  -994.856238470     A.U. after   14 cycles
 SCF Done:  E(RB3LYP) =  -994.857809734     A.U. after   10 cycles
 SCF Done:  E(RB3LYP) =  -994.859937961     A.U. after   12 cycles
 SCF Done:  E(RB3LYP) =  -994.860186136     A.U. after   12 cycles
 SCF Done:  E(RB3LYP) =  -994.860895121     A.U. after   12 cycles
 SCF Done:  E(RB3LYP) =  -994.861677802     A.U. after   11 cycles
 SCF Done:  E(RB3LYP) =  -994.861687698     A.U. after   11 cycles
 SCF Done:  E(RB3LYP) =  -994.861692765     A.U. after   11 cycles
 SCF Done:  E(RB3LYP) =  -994.861681420     A.U. after   11 cycles
 SCF Done:  E(RB3LYP) =  -994.861688938     A.U. after   11 cycles
 SCF Done:  E(RB3LYP) =  -994.861692532     A.U. after   11 cycles
 SCF Done:  E(RB3LYP) =  -994.861692542     A.U. after    8 cycles
 SCF Done:  E(RB3LYP) =  -994.861692327     A.U. after    8 cycles
 SCF Done:  E(RB3LYP) =  -994.861692569     A.U. after    8 cycles
 Optimization completed on the basis of negligible forces.
    -- Stationary point found.
 Normal termination of Gaussian 09 at Thu Mar 16 16:39:02 2023.

 ------------------------------------------------------------------
 #N Geom=AllCheck Guess=TCheck SCRF=Check GenChk RB3LYP/ChkBas Freq
 ------------------------------------------------------------------

 Structure from the checkpoint file:  "/home/scr/helius/Gau-26644.chk"
 -------------------
 Title Card Required
 -------------------
 Charge =  0 Multiplicity = 1

                         Standard orientation:
 ---------------------------------------------------------------------
 Center     Atomic      Atomic             Coordinates (Angstroms)
 Number     Number       Type             X           Y           Z
 ---------------------------------------------------------------------
      1         79           0        0.587219    0.234516   -0.263421
      2         15           0       -1.641846    0.033300    0.028516
      3          6           0       -2.509215    1.633576    0.382736
      4          1           0       -3.567329    1.416671    0.574229
      5          1           0       -2.460634    2.221591   -0.541835
      6          6           0       -2.076013   -1.069089    1.452808
      7          1           0       -3.168572   -1.091478    1.552746
      8          1           0       -1.681627   -0.577843    2.349494
      9          6           0       -2.500863   -0.666902   -1.460132
     10          1           0       -1.987983   -1.606287   -1.696587
     11          1           0       -2.268587    0.016565   -2.285734
     12          6           0       -1.900632    2.427378    1.547063
     13          1           0       -1.958078    1.875918    2.491454
     14          1           0       -0.848684    2.664207    1.358040
     15          1           0       -2.442449    3.369652    1.681632
     16          6           0       -4.015177   -0.887613   -1.344948
     17          1           0       -4.402760   -1.295928   -2.284612
     18          1           0       -4.266080   -1.598875   -0.551067
     19          1           0       -4.552107    0.045846   -1.146932
     20          6           0       -1.500515   -2.487640    1.337518
     21          1           0       -0.408634   -2.467233    1.259322
     22          1           0       -1.764817   -3.071381    2.225618
     23          1           0       -1.895043   -3.018437    0.464193
     24          7           0        3.351593   -0.343102    0.139288
     25          8           0        2.758236   -1.145562    0.878019
     26          8           0        4.561766   -0.259518    0.017791
     27          8           0        2.613017    0.504355   -0.587400
 ---------------------------------------------------------------------

 SCF Done:  E(RB3LYP) =  -994.861692569     A.U. after    1 cycles

 The electronic state is 1-A.
 Alpha  occ. eigenvalues --  -77.13682 -19.15755 -19.13952 -19.13812 -14.56844
 Alpha  occ. eigenvalues --  -10.22483 -10.22453 -10.22227 -10.21016 -10.20239
 Alpha  occ. eigenvalues --  -10.19894  -6.61614  -4.77756  -4.77747  -4.77556
 Alpha  occ. eigenvalues --   -4.17477  -2.32216  -2.30014  -2.29900  -1.21518
 Alpha  occ. eigenvalues --   -1.01905  -0.98748  -0.83384  -0.79200  -0.78816
 Alpha  occ. eigenvalues --   -0.70140  -0.65933  -0.64998  -0.60141  -0.57371
 Alpha  occ. eigenvalues --   -0.51405  -0.51287  -0.50123  -0.48717  -0.48518
 Alpha  occ. eigenvalues --   -0.48270  -0.46832  -0.45171  -0.44145  -0.41759
 Alpha  occ. eigenvalues --   -0.41070  -0.40583  -0.39769  -0.39495  -0.38663
 Alpha  occ. eigenvalues --   -0.38030  -0.36166  -0.35695  -0.33639  -0.32693
 Alpha  occ. eigenvalues --   -0.31350  -0.30946  -0.30515  -0.29240  -0.27666
 Alpha  occ. eigenvalues --   -0.27368  -0.26984  -0.22895
 Alpha virt. eigenvalues --   -0.03044  -0.01772   0.00431   0.00734   0.02989
 Alpha virt. eigenvalues --    0.04641   0.04875   0.07336   0.08328   0.08942
 Alpha virt. eigenvalues --    0.09743   0.10072   0.11314   0.12484   0.13377

 Mulliken charges:
               1
     1  Au   0.201761
     2  P    0.456200
     3  C   -0.447977
     4  H    0.174231
     5  H    0.187716
     6  C   -0.447430
     7  H    0.172332
     8  H    0.195011
     9  C   -0.455063
    10  H    0.198016
    11  H    0.194861
    12  C   -0.468945
    13  H    0.161114
    14  H    0.205499
    15  H    0.165678
    16  C   -0.457866
    17  H    0.171334
    18  H    0.161932
    19  H    0.160223
    20  C   -0.476929
    21  H    0.222211
    22  H    0.166357
    23  H    0.155804
    24  N    0.725728
    25  O   -0.400974
    26  O   -0.387523
    27  O   -0.533301
 Sum of Mulliken charges =   0.00000

 Dipole moment (field-independent basis, Debye):
    X=            -11.8149    Y=              0.3580    Z=              0.2492  Tot=             11.8229
 Quadrupole moment (field-independent basis, Debye-Ang):
   XX=           -112.2055   YY=            -94.2091   ZZ=            -94.4195
   XY=              2.2414   XZ=             -0.2067   YZ=              2.8751

  Exact polarizability: 173.560  -0.897 122.788   2.429  -2.541 113.790
 Approx polarizability: 242.437   2.854 189.274  -3.635 -13.391 184.296

                      1                      2                      3
                      A                      A                      A
 Frequencies --     13.1679                43.7899                52.1890
 Red. masses --      8.4073                 6.8492                 8.3761
 Frc consts  --      0.0009                 0.0077                 0.0134
 IR Inten    --      0.2778                 0.9131                 0.1502

                      4                      5                      6
                      A                      A                      A
 Frequencies --     63.8128                72.2047                89.1586
 Red. masses --      2.4520                 2.6599                 2.1789
 Frc consts  --      0.0059                 0.0082                 0.0102
 IR Inten    --      0.0623                 0.0742                 0.6546

                      7                      8                      9
                      A                      A                      A
 Frequencies --    109.3191               116.1514               143.9687
 Red. masses --      3.8525                 3.7234                 5.1847
 Frc consts  --      0.0271                 0.0296                 0.0633
 IR Inten    --      1.9851                 0.6164                 6.3221

                     10                     11                     12
                      A                      A                      A
 Frequencies --    151.2578               173.8021               186.1224
 Red. masses --      2.4655                 3.2748                 2.3405
 Frc consts  --      0.0332                 0.0583                 0.0478
 IR Inten    --      0.9391                 0.1614                 0.5384

                     13                     14                     15
                      A                      A                      A
 Frequencies --    193.9656               236.9905               251.2582
 Red. masses --      1.6473                 1.6999                 1.6520
 Frc consts  --      0.0365                 0.0563                 0.0614
 IR Inten    --      0.1032                 0.3308                 0.3374

                     16                     17                     18
                      A                      A                      A
 Frequencies --    256.5364               270.8771               319.5409
 Red. masses --      1.4060                 1.8886                 3.1102
 Frc consts  --      0.0545                 0.0816                 0.1871
 IR Inten    --      0.0304                 0.9134                 2.7820

                     19                     20                     21
                      A                      A                      A
 Frequencies --    328.4678               386.4198               442.8726
 Red. masses --     11.8845                 3.6458                 3.6319
 Frc consts  --      0.7555                 0.3207                 0.4197
 IR Inten    --     31.3284                 1.8067                 8.7197

                     22                     23                     24
                      A                      A                      A
 Frequencies --    623.0542               675.4039               699.1656
 Red. masses --      3.3526                 2.6064                 3.1680
 Frc consts  --      0.7668                 0.7005                 0.9124
 IR Inten    --     10.0421                 3.7061                10.1370

                     25                     26                     27
                      A                      A                      A
 Frequencies --    709.4221               753.7822               762.5998
 Red. masses --     14.4523                 1.5141                 8.8518
 Frc consts  --      4.2854                 0.5069                 3.0330
 IR Inten    --      2.0575                30.9133                23.0515

                     28                     29                     30
                      A                      A                      A
 Frequencies --    772.3859               789.6824               800.0431
 Red. masses --      1.3758                 1.3017                14.3713
 Frc consts  --      0.4836                 0.4783                 5.4197
 IR Inten    --     11.1583                35.5344                11.9942

                     31                     32                     33
                      A                      A                      A
 Frequencies --    993.2112               995.1888               996.1611
 Red. masses --      1.7333                 1.6051                 7.4123
 Frc consts  --      1.0074                 0.9366                 4.3337
 IR Inten    --      0.2374                 2.6066               194.6097

                     34                     35                     36
                      A                      A                      A
 Frequencies --    998.0575              1010.1700              1024.6217
 Red. masses --      1.8486                 1.5022                 1.3542
 Frc consts  --      1.0849                 0.9032                 0.8376
 IR Inten    --     18.6069                 3.4313                 2.0589

                     37                     38                     39
                      A                      A                      A
 Frequencies --   1044.6198              1072.7770              1080.0812
 Red. masses --      1.6143                 1.5809                 1.7569
 Frc consts  --      1.0379                 1.0719                 1.2076
 IR Inten    --      5.6920                35.5925                18.8410

                     40                     41                     42
                      A                      A                      A
 Frequencies --   1085.3538              1280.1144              1282.1498
 Red. masses --      1.7669                 1.2333                 1.2350
 Frc consts  --      1.2263                 1.1907                 1.1962
 IR Inten    --     12.0830                 0.3924                 1.3004

                     43                     44                     45
                      A                      A                      A
 Frequencies --   1290.9863              1307.3798              1311.4810
 Red. masses --      1.1976                 1.3991                 1.4165
 Frc consts  --      1.1760                 1.4089                 1.4355
 IR Inten    --      4.2469                 2.9617                25.9838

                     46                     47                     48
                      A                      A                      A
 Frequencies --   1321.7561              1333.1958              1443.4874
 Red. masses --      1.3885                10.9680                 1.2048
 Frc consts  --      1.4292                11.4859                 1.4791
 IR Inten    --      1.9909               326.5024                 1.3904

                     49                     50                     51
                      A                      A                      A
 Frequencies --   1445.3637              1448.1774              1488.7429
 Red. masses --      1.2017                 1.1980                 1.0792
 Frc consts  --      1.4791                 1.4803                 1.4093
 IR Inten    --      2.7370                 2.8374                 2.0554

                     52                     53                     54
                      A                      A                      A
 Frequencies --   1491.1360              1493.4177              1528.9790
 Red. masses --      1.0828                 1.0852                 1.0454
 Frc consts  --      1.4185                 1.4260                 1.4398
 IR Inten    --      6.9845                 9.7044                 7.0674

                     55                     56                     57
                      A                      A                      A
 Frequencies --   1529.7285              1531.0612              1531.8067
 Red. masses --      1.0439                 1.0406                 1.0385
 Frc consts  --      1.4392                 1.4373                 1.4358
 IR Inten    --      6.4220                 5.9680                10.9717

                     58                     59                     60
                      A                      A                      A
 Frequencies --   1534.9488              1535.2127              1646.9295
 Red. masses --      1.0479                 1.0397                14.5443
 Frc consts  --      1.4546                 1.4438                23.2430
 IR Inten    --      2.3847                 5.1361               496.4907

                     61                     62                     63
                      A                      A                      A
 Frequencies --   3053.4662              3055.1510              3058.2424
 Red. masses --      1.0581                 1.0576                 1.0361
 Frc consts  --      5.8124                 5.8163                 5.7093
 IR Inten    --      4.1340                 3.1543                18.3315

                     64                     65                     66
                      A                      A                      A
 Frequencies --   3059.8965              3061.4320              3065.9493
 Red. masses --      1.0357                 1.0394                 1.0602
 Frc consts  --      5.7136                 5.7397                 5.8717
 IR Inten    --     20.8037                29.5146                 5.7695

                     67                     68                     69
                      A                      A                      A
 Frequencies --   3097.7732              3102.4209              3103.8165
 Red. masses --      1.1040                 1.1025                 1.1020
 Frc consts  --      6.2421                 6.2523                 6.2549
 IR Inten    --      2.0229                 3.2185                 1.6219

                     70                     71                     72
                      A                      A                      A
 Frequencies --   3124.8187              3125.3718              3126.8902
 Red. masses --      1.1019                 1.1025                 1.1024
 Frc consts  --      6.3393                 6.3453                 6.3504
 IR Inten    --     29.4356                 1.9234                28.5505

                     73                     74                     75
                      A                      A                      A
 Frequencies --   3134.1695              3135.9092              3136.9813
 Red. masses --      1.1031                 1.1036                 1.1038
 Frc consts  --      6.3842                 6.3942                 6.3995
 IR Inten    --     16.1748                28.8681                12.6056

 - Thermochemistry -
 -------------------
 Temperature   298.150 Kelvin.  Pressure   1.00000 Atm.
 Atom     1 has atomic number 79 and mass 196.96660

 Molecular mass:   377.04556 amu.
 Principal axes and moments of inertia in atomic units:
                           1         2         3
     Eigenvalues --  1797.235555869.179366261.89359
           X            0.99999   0.00312   0.00403
           Y           -0.00339   0.99765   0.06845
           Z           -0.00380  -0.06846   0.99765
 This molecule is an asymmetric top.
 Rotational symmetry number  1.
 Warning -- assumption of classical behavior for rotation
           may cause significant error
 Rotational temperatures (Kelvin)      0.04819     0.01476     0.01383
 Rotational constants (GHZ):           1.00418     0.30749     0.28821
 Zero-point vibrational energy     574243.4 (Joules/Mol)
                                  137.24746 (Kcal/Mol)
 Warning -- explicit consideration of  21 degrees of freedom as
           vibrations may cause significant error
 Vibrational temperatures:     18.95    63.00    75.09    91.81   103.89
          (Kelvin)            128.28   157.29   167.12   207.14   217.63
                              250.06   267.79   279.07   340.98   361.50
                              369.10   389.73   459.75   472.59   555.97
                              637.19   896.43   971.75  1005.94  1020.70
                             1084.52  1097.21  1111.29  1136.18  1151.08
                             1429.01  1431.85  1433.25  1435.98  1453.41
                             1474.20  1502.97  1543.48  1553.99  1561.58
                             1841.80  1844.73  1857.44  1881.03  1886.93
                             1901.71  1918.17  2076.85  2079.55  2083.60
                             2141.97  2145.41  2148.69  2199.86  2200.94
                             2202.85  2203.93  2208.45  2208.83  2369.56
                             4393.25  4395.68  4400.12  4402.50  4404.71
                             4411.21  4457.00  4463.69  4465.69  4495.91
                             4496.71  4498.89  4509.37  4511.87  4513.41

 Zero-point correction=                           0.218718 (Hartree/Particle)
 Thermal correction to Energy=                    0.235658
 Thermal correction to Enthalpy=                  0.236603
 Thermal correction to Gibbs Free Energy=         0.170456
 Sum of electronic and zero-point Energies=           -994.642975
 Sum of electronic and thermal Energies=              -994.626034
 Sum of electronic and thermal Enthalpies=            -994.625090
 Sum of electronic and thermal Free Energies=         -994.691237

                     E (Thermal)             CV                S
                      KCal/Mol        Cal/Mol-Kelvin    Cal/Mol-Kelvin
 Total                  147.878             56.634            139.218
 Electronic               0.000              0.000              0.000
 Translational            0.889              2.981             43.674
 Rotational               0.889              2.981             32.557
 Vibrational            146.100             50.672             62.986
 Vibration     1          0.593              1.987              7.464
 Vibration     2          0.595              1.980              5.080
 Vibration     3          0.596              1.977              4.733
 Vibration     4          0.597              1.972              4.336
 Vibration     5          0.598              1.967              4.092
 Vibration     6          0.602              1.957              3.678
 Vibration     7          0.606              1.942              3.281
 Vibration     8          0.608              1.936              3.163
 Vibration     9          0.616              1.909              2.750
 Vibration    10          0.619              1.901              2.656
 Vibration    11          0.627              1.875              2.394
 Vibration    12          0.632              1.859              2.266
 Vibration    13          0.635              1.848              2.190
 Vibration    14          0.656              1.784              1.825
 Vibration    15          0.663              1.761              1.722
 Vibration    16          0.666              1.752              1.685
 Vibration    17          0.675              1.727              1.591
 Vibration    18          0.705              1.636              1.312
 Vibration    19          0.712              1.619              1.268
 Vibration    20          0.755              1.499              1.014
 Vibration    21          0.803              1.377              0.818

 Optimization completed on the basis of negligible forces.
    -- Stationary point found.
 Normal termination of Gaussian 09 at Thu Mar 16 16:41:32 2023.
